   This run of MOLCAS is using the pymolcas driver

                             OPE
                             OPE          NMOL  CASOP  ENMOLC A   SO
                 OPE        NMOLC        AS  OP EN  MO LC     AS  OP
                OPENM       OL CA        SO  PE NM  OL CA     SOP EN
                OP EN      MO   LC       AS  OP ENMOL  CASO   PENMOL
                OP  EN     MO   LC       AS  OP EN     MO     LC ASO
               OP   E  NMOL  C  AS       OP  EN MO     LC     AS  OP
               OP  E   NMO   LC AS        OPEN  MO     LCASOP EN   M
               O  PEN   MO  LCA  SO
            OPE   NMO   L   CAS    OP
        OPENMOL  CASOP     ENMOL   CASOPE
     OPENMOLCA   SOPENMOLCASOPEN   MOLCASOPE
    OPENMOLCAS   OP           EN   MOL    CAS
    OPENMOLCAS       OP  ENM        O     LCA
    OPENMOLCAS    OPEN  MOLCASO     P  E  NMO
    OPENMOLCAS     OP               E  N  MOL
    OPENMOLCA   SO           PENM   O  L  CAS    OPEN    MO    LCAS
    OPENMOLCA   SOP           ENM   O  L  CAS   OP  EN  MOLC  AS   O
    OPENMOLCA   SOPE           NM      O  LCA   S      OP  EN MO
    OPENMOLC                AS         O  PEN   M      OL  CA  SOPE
    OPENMO        LCASOPE  NMOL        C  ASO   P      ENMOLC     AS
    OPE     NMO      LCA  SO     P     E   NM   OL  CA SO  PE N   MO
          OPENMOLCA            SOPE   NMO        LCAS  O    P  ENMO
     OPENMOLCASOPENMOLCASOPENMOLCASOPENMOLCA
        OPENMOLCASOPENMOLCASOPENMOLCASOPE
            OPENMOLCASOPENMOLCASOPENM
               OPENMOLCASOPENMOLCA        version: o91e1abe7de707b ?
                   OPENMOLCASO
                       OPE                tag:

 OpenMolcas is free software; you can redistribute it and/or modify it
 under the terms of the GNU Lesser General Public License version 2.1.
 OpenMolcas is distributed in the hope that it will be useful, but it
 is provided "as is" and without any express or implied warranties.
 For more details see the full text of the license in the file
 LICENSE or in <http://www.gnu.org/licenses/>.

                 Copyright (C) The OpenMolcas Authors
           For the author list and the recommended citation,
                   consult the file CONTRIBUTORS.md

           *************************************************
           * pymolcas version py2.10                       *
           *   build 3068ae8b88c9345ec6cfef6fef7f1169      *
           *   (after the EMIL interpreter by V. Veryazov) *
           *************************************************

configuration info
------------------
Host name: login1 (Linux)
C Compiler ID: GNU
C flags: -std=gnu99
Fortran Compiler ID: GNU
Fortran flags: -fno-aggressive-loop-optimizations -cpp -fdefault-integer-8 -fmax-stack-var-size=1048576
Definitions: _MOLCAS_;_I8_;_LINUX_;_MKL_
Parallel: OFF (GA=OFF)


   ----------------------------------------------------------------------------------------------------------------------------------------------
  |
  |           Project: chromium_so_cf
  |    Submitted from: /home4/s4752295/Internship/Initial_simulations/Point_charge_model/1_electron/active_space_9_non_rel/Cr/varying_bond_length
  |      Scratch area: /tmp/chromium_so_cf
  |   Save outputs to: /home4/s4752295/Internship/Initial_simulations/Point_charge_model/1_electron/active_space_9_non_rel/Cr/varying_bond_length
  |            Molcas: /home4/s4752295/Internship/Molcas/recomp_try/OpenMolcas-master/build
  |
  | Scratch area is empty
  |
  |    MOLCAS_DRIVER = /home4/s4752295/Internship/Molcas/bin/pymolcas
  |    MOLCAS_NPROCS = 1
  |    MOLCAS_SOURCE = /home4/s4752295/Internship/Molcas/recomp_try/OpenMolcas-master
  | MOLCAS_STRUCTURE = 0
  |
   ----------------------------------------------------------------------------------------------------------------------------------------------

++ ---------   Input file   ---------

&SEWARD
AMFi

CLIG
$R

Basis Set
Cr.ANO-rcc.Roos.21s15p10d6f4g2h.10s10p8d6f4g2h.
Spherical d
Cr            0.0       0.0     0.0
End of Basis

Xfield

4
0.000000,  0.00000,  1.3230     -1.0
1.145752,  0.00000, -0.6615     -1.0
-0.572876,  0.99225, -0.6615    -1.0
-0.572876, -0.99225, -0.6615    -1.0

End of input

&SCF
Occupied
9
Iterations
   50  100
End of Input

&RASSCF
LumOrb
Symmetry
1
Spin
2
Nactel
1 0 0
CIRoot
9 9 1
inactive
9
ras2
9
End of Input

>>> COPY chromium_so_cf.JobIph $SLURM_SUBMIT_DIR/chromium_so_cf.doublet.JobIph

>>> COPY $SLURM_SUBMIT_DIR/chromium_so_cf.doublet.JobIph ./JOB002

&RASSI
NROFJobIph
1 All
SpinOrbit
End of Input

EOF

-- ----------------------------------

--- Start Module: seward at Fri Jan 10 02:28:02 2025 ---

()()()()()()()()()()()()()()()()()()()()()()()()()()()()()()()()()()()()()()()()()()()()()()()()()()

                                              &SEWARD

                                   only a single process is used
                       available to each process: 4.1 GB of memory, 1 thread?
                                            pid: 1096799
()()()()()()()()()()()()()()()()()()()()()()()()()()()()()()()()()()()()()()()()()()()()()()()()()()

 The speed of LIGHT in this CALCULATION =   137.03599917700001     
               SEWARD will generate:
                  Multipole Moment integrals up to order  2
                  Kinetic Energy integrals
                  Nuclear Attraction integrals (point charge)
                  One-Electron Hamiltonian integrals
                  Velocity integrals
                  Relativistic Douglas-Kroll-Hess integrals:
                    - Parametrization         : EXP
                    - DKH order of Hamiltonian: 2
                    - DKH order of Properties : 0
                         - multipole moment operators
                         - electric potential operators
                         - contact operators
                  External field from     4 point(s) added to the one-electron Hamiltonian
                  Orbital angular momentum around ( 0.0000  0.0000  0.0000 )
                  Velocity quadrupole around ( 0.0000  0.0000  0.0000 )
                  Atomic mean-field integrals
                  Two-Electron Repulsion integrals

                   Integrals are discarded if absolute value <: 0.10E-13
                   Integral cutoff threshold is set to       <: 0.10E-15

++    Symmetry information:
      ---------------------

                    Character Table for C1 

                             E  
                    a        1  x, y, xy, Rz, z, xz, Ry, yz, Rx, I
--


++    Basis set information:
      ----------------------


      Basis set label: CR.ANO-RCC.ROOS.21S15P10D6F4G2H.10S10P8D6F4G2H......

      Electronic valence basis set:
      ------------------
      Associated Effective Charge  24.000000 au
      Associated Actual Charge     24.000000 au
      Nuclear Model: Point charge

      Shell  nPrim  nBasis  Cartesian Spherical Contaminant
         s      21      10        X                  
         p      15      10        X                  
         d      10       8                 X         
         f       6       6                 X         
         g       4       4                 X         
         h       2       2                 X         
--


++    Molecular structure info:
      -------------------------

                    ************************************************ 
                    **** Cartesian Coordinates / Bohr, Angstrom **** 
                    ************************************************ 

     Center  Label                x              y              z                     x              y              z
        1      CR               0.000000       0.000000       0.000000              0.000000       0.000000       0.000000
--


++    Operator info:
      --------------


  Net charge from external field:   -4.0000000000000000     
--


            Nuclear Potential Energy              0.00000000 au

                    Nuclear-External Field Potential Energy     -72.56235132 au
                    External Field Potential Energy               2.82089977 au 


            Total Nuclear Potential Energy            -72.56235132 au


      Basis set specifications :
      Symmetry species         a  
      Basis functions          180

 Sorry, Molden does not know how to handle
 functions with angular momentum larger than g
Note: The following floating-point exceptions are signalling: IEEE_UNDERFLOW_FLAG IEEE_DENORMAL
--- Stop Module: seward at Fri Jan 10 02:28:10 2025 /rc=_RC_ALL_IS_WELL_ ---
*** files: chromium_so_cf.GssOrb xmldump
    saved to directory /home4/s4752295/Internship/Initial_simulations/Point_charge_model/1_electron/active_space_9_non_rel/Cr/varying_bond_length
--- Module seward spent 8 seconds ---

*** symbolic link created: INPORB -> chromium_so_cf.GssOrb
--- Start Module: scf at Fri Jan 10 02:28:10 2025 ---

()()()()()()()()()()()()()()()()()()()()()()()()()()()()()()()()()()()()()()()()()()()()()()()()()()

                                                &SCF

                                   only a single process is used
                       available to each process: 4.1 GB of memory, 1 thread?
                                            pid: 1096889
()()()()()()()()()()()()()()()()()()()()()()()()()()()()()()()()()()()()()()()()()()()()()()()()()()

++    Input section:
      --------------

      Header of the integral files:
      
       Integrals generated by seward 4.2.0  , Fri Jan 10 02:28:02 2025


      Cartesian coordinates in Angstrom:
      -----------------------------------------------------
      No.  Label        X            Y            Z        
      -----------------------------------------------------
       1   CR         0.00000000   0.00000000   0.00000000
      -----------------------------------------------------
      Nuclear repulsion energy =  -72.56235132
--

++    Orbital specifications:
      -----------------------

      Symmetry species               1
                                     a
      Frozen orbitals                0
      Occupied orbitals              9
      Secondary orbitals           171
      Deleted orbitals               0
      Total number of orbitals     180
      Number of basis functions    180
--

      Molecular charge                           6.000

++    Optimization specifications:
      ----------------------------

      SCF Algorithm: Conventional
      Minimized density differences are used
      Number of density matrices in core                5
      Maximum number of NDDO SCF iterations            50
      Maximum number of HF SCF iterations             100
      Threshold for SCF energy change            0.10E-08
      Threshold for density matrix               0.10E-03
      Threshold for Fock matrix                  0.15E-03
      Threshold for linear dependence            0.10E-08
      Threshold at which DIIS is turned on       0.15E+00
      Threshold at which QNR/C2DIIS is turned on 0.75E-01
      Threshold for Norm(delta) (QNR/C2DIIS)     0.20E-04
      DIIS extrapolation of the SCF procedure
      All orbitals punched on: SCFORB
--

      Detected guessorb starting orbitals                                             


++ Convergence information
                                   SCF        iterations: Energy and convergence statistics

Iter     Tot. SCF        One-elec.       Two-elec.     Energy      Max Dij or  Max Fij      DNorm      TNorm      AccCon     Time
         Energy          Energy          Energy        Change      Delta Norm                                                in Sec.

 The total and one-electron energies are shifted by a value of      1000. a.u.

   1   -58.366760764  -291.181072526   305.376663078   0.00E+00    0.14E+00*   0.36E+00*    0.60E+01   0.25E+03   None         1.
   2   -58.891730851  -301.015615785   314.686236250  -0.52E+00*   0.54E-01*   0.76E-01*    0.94E+00   0.25E+03   EDIIS        1.
   3   -58.908657256  -299.606569977   313.260264036  -0.17E-01*   0.13E-01*   0.16E-01*    0.18E+00   0.25E+03   EDIIS        1.
   4   -58.910127783  -299.834330450   313.486553983  -0.15E-02*   0.66E-02*   0.74E-02*    0.26E-01   0.25E+03   c2DIIS       1.
   5   -58.910303383  -299.792364893   313.444412825  -0.18E-03*   0.20E-02*   0.27E-02*    0.32E-02   0.25E+03   QNRc2DIIS    1.
   6   -58.910332550  -299.794816023   313.446834788  -0.29E-04*   0.12E-02*   0.11E-02*    0.35E-03   0.25E+03   QNRc2DIIS    1.
   7   -58.910337272  -299.792553890   313.444567933  -0.47E-05*   0.24E-04*   0.52E-04     0.59E-04   0.25E+03   QNRc2DIIS    1.
   8   -58.910337278  -299.793045073   313.445059111  -0.56E-08*   0.18E-05    0.16E-05     0.86E-05   0.25E+03   QNRc2DIIS    1.
   9   -58.910337278  -299.793075460   313.445089497  -0.20E-10    0.38E-06    0.56E-06     0.28E-03   0.25E+03   QNRc2DIIS    1.

       Convergence after  9 Macro Iterations
--

 *****************************************************************************************************************************
 *                                                                                                                           *
 *                                             SCF/KS-DFT Program, Final results                                             *
 *                                                                                                                           *
 *                                                                                                                           *
 *                                                                                                                           *
 *                                                       Final Results                                                       *
 *                                                                                                                           *
 *****************************************************************************************************************************

::    Total SCF energy                              -1058.9103372779
      One-electron energy                           -1299.7930754596
      Two-electron energy                             313.4450894974
      Nuclear repulsion energy                        -72.5623513158
      Kinetic energy (interpolated)                  1075.5179124252
      Virial theorem                                    0.9845585323
      Total spin, S(S+1)                                0.0000000000
      Total spin, S                                     0.0000000000
      Max non-diagonal density matrix element           0.0000004402
      Max non-diagonal Fock matrix element              0.0000000702


      All orbitals with orbital energies smaller than  E(LUMO)+0.5 are printed

++    Molecular orbitals:
      -------------------

      Title: SCF orbitals

      Molecular orbitals for symmetry species 1: a  

          Orbital            1         2         3         4         5         6         7         8         9        10    
          Energy         -223.5075  -28.1417  -23.7728  -23.7728  -23.7656   -4.3926   -3.0769   -3.0769   -2.9448   -0.5945
          Occ. No.          2.0000    2.0000    2.0000    2.0000    2.0000    2.0000    2.0000    2.0000    2.0000    0.0000

        1 CR     1s         1.0000   -0.0001    0.0000   -0.0000   -0.0000   -0.0001   -0.0000    0.0000    0.0000    0.0000
        2 CR     2s         0.0001    1.0000   -0.0000    0.0000   -0.0028   -0.0027   -0.0000   -0.0000   -0.0006    0.0000
        3 CR     3s        -0.0001   -0.0027    0.0000   -0.0000    0.0005   -0.9941   -0.0000   -0.0000   -0.0639    0.0000
        4 CR     4s         0.0000    0.0002   -0.0000    0.0000   -0.0001    0.0333   -0.0000   -0.0000    0.0070   -0.0000
        5 CR     5s        -0.0000   -0.0007    0.0000   -0.0000    0.0002   -0.0542   -0.0000    0.0000   -0.0131    0.0000
        6 CR     6s         0.0000    0.0005   -0.0000    0.0000   -0.0001    0.0286    0.0000   -0.0000    0.0074    0.0000
        7 CR     7s        -0.0000   -0.0002   -0.0000    0.0000    0.0000   -0.0006    0.0000   -0.0000   -0.0003   -0.0000
        8 CR     8s         0.0000    0.0000    0.0000   -0.0000   -0.0000   -0.0021    0.0000    0.0000   -0.0006   -0.0000
        9 CR     9s        -0.0001    0.0001   -0.0000    0.0000    0.0000    0.0015    0.0000    0.0000    0.0005   -0.0000
       10 CR    10s         0.0001   -0.0002    0.0000   -0.0000    0.0000    0.0001    0.0000    0.0000    0.0001   -0.0000
       11 CR     2px        0.0000    0.0000    1.0000   -0.0005    0.0000    0.0000    0.0000    0.0034    0.0000   -0.0000
       12 CR     3px       -0.0000    0.0000   -0.0034    0.0000   -0.0000   -0.0000    0.0000    0.9895    0.0000    0.0000
       13 CR     4px        0.0000   -0.0000    0.0006   -0.0000    0.0000    0.0000   -0.0000   -0.0548   -0.0000    0.0000
       14 CR     5px       -0.0000    0.0000   -0.0011    0.0000   -0.0000   -0.0000    0.0000    0.0653    0.0000    0.0000
       15 CR     6px        0.0000   -0.0000    0.0003   -0.0000    0.0000   -0.0000   -0.0000   -0.0078   -0.0000   -0.0000
       16 CR     7px       -0.0000    0.0000   -0.0001    0.0000   -0.0000    0.0000   -0.0000   -0.0017    0.0000    0.0000
       17 CR     8px        0.0000   -0.0000   -0.0001    0.0000   -0.0000   -0.0000    0.0000    0.0013   -0.0000    0.0000
       18 CR     9px       -0.0000   -0.0000    0.0002   -0.0000    0.0000   -0.0000   -0.0000   -0.0009   -0.0000   -0.0000
       19 CR    10px        0.0000   -0.0000   -0.0002    0.0000   -0.0000    0.0000   -0.0000   -0.0003    0.0000   -0.0000
       20 CR    11px       -0.0000    0.0000    0.0002   -0.0000    0.0000    0.0000   -0.0000   -0.0002    0.0000   -0.0000
       21 CR     2py       -0.0000   -0.0000    0.0005    1.0000   -0.0000    0.0000    0.0034   -0.0000   -0.0000    0.0000
       22 CR     3py        0.0000    0.0000   -0.0000   -0.0034    0.0000    0.0000    0.9895   -0.0000   -0.0000   -0.0051
       23 CR     4py       -0.0000   -0.0000    0.0000    0.0006   -0.0000   -0.0000   -0.0548    0.0000    0.0000   -0.0076
       24 CR     5py        0.0000    0.0000   -0.0000   -0.0011    0.0000    0.0000    0.0653   -0.0000   -0.0000   -0.0025
       25 CR     6py       -0.0000   -0.0000    0.0000    0.0003   -0.0000   -0.0000   -0.0078    0.0000    0.0000    0.0023
       26 CR     7py        0.0000    0.0000   -0.0000   -0.0001    0.0000    0.0000   -0.0017    0.0000    0.0000   -0.0003
       27 CR     8py       -0.0000   -0.0000   -0.0000   -0.0001    0.0000   -0.0000    0.0013   -0.0000    0.0000   -0.0009
       28 CR     9py        0.0000    0.0000    0.0000    0.0002    0.0000    0.0000   -0.0009    0.0000    0.0000    0.0002
       29 CR    10py       -0.0000   -0.0000   -0.0000   -0.0002    0.0000   -0.0000   -0.0003    0.0000    0.0000    0.0003
       30 CR    11py        0.0000    0.0000    0.0000    0.0002   -0.0000    0.0000   -0.0002    0.0000    0.0000    0.0000
       31 CR     2pz        0.0000    0.0028   -0.0000    0.0000    1.0000    0.0003   -0.0000   -0.0000    0.0041   -0.0000
       32 CR     3pz       -0.0000    0.0004    0.0000   -0.0000   -0.0040   -0.0634   -0.0000   -0.0000    0.9900    0.0000
       33 CR     4pz        0.0000   -0.0001   -0.0000    0.0000    0.0008    0.0027    0.0000    0.0000   -0.0586   -0.0000
       34 CR     5pz       -0.0000    0.0002    0.0000   -0.0000   -0.0013   -0.0006    0.0000   -0.0000    0.0762   -0.0000
       35 CR     6pz        0.0000   -0.0001   -0.0000    0.0000    0.0004   -0.0016   -0.0000    0.0000   -0.0128   -0.0000
       36 CR     7pz       -0.0000    0.0001    0.0000   -0.0000   -0.0002    0.0019   -0.0000    0.0000    0.0014   -0.0000
       37 CR     8pz        0.0000   -0.0000    0.0000   -0.0000   -0.0001    0.0001   -0.0000   -0.0000    0.0024   -0.0000
       38 CR     9pz       -0.0000    0.0000   -0.0000    0.0000    0.0002   -0.0006    0.0000    0.0000   -0.0026    0.0000
       39 CR    10pz        0.0000   -0.0000    0.0000   -0.0000   -0.0002   -0.0001    0.0000    0.0000   -0.0010    0.0000
       40 CR    11pz       -0.0000    0.0000   -0.0000    0.0000    0.0002    0.0000    0.0000    0.0000   -0.0003    0.0000
       41 CR     3d2-      -0.0000    0.0000    0.0000    0.0003   -0.0000    0.0000    0.0589   -0.0000   -0.0000    0.8571
       42 CR     4d2-      -0.0000   -0.0000   -0.0000   -0.0002    0.0000   -0.0000   -0.0175    0.0000    0.0000   -0.0477
       43 CR     5d2-       0.0000    0.0000    0.0000    0.0000    0.0000    0.0000   -0.0065    0.0000    0.0000    0.0120
       44 CR     6d2-      -0.0000   -0.0000    0.0000    0.0001   -0.0000    0.0000    0.0064   -0.0000   -0.0000   -0.0104
       45 CR     7d2-       0.0000    0.0000   -0.0000   -0.0001    0.0000    0.0000    0.0016   -0.0000   -0.0000   -0.0036
       46 CR     8d2-      -0.0000   -0.0000    0.0000    0.0001   -0.0000   -0.0000   -0.0024    0.0000   -0.0000    0.0024
       47 CR     9d2-       0.0000    0.0000   -0.0000   -0.0000    0.0000    0.0000   -0.0002    0.0000    0.0000    0.0028
       48 CR    10d2-      -0.0000    0.0000    0.0000    0.0000   -0.0000    0.0000    0.0006   -0.0000    0.0000    0.0006
       49 CR     3d1-      -0.0000    0.0000    0.0000    0.0005   -0.0000    0.0000    0.0884   -0.0000   -0.0000   -0.5085
       50 CR     4d1-       0.0000   -0.0000   -0.0000   -0.0004    0.0000   -0.0000   -0.0262    0.0000    0.0000    0.0306
       51 CR     5d1-      -0.0000    0.0000    0.0000    0.0002   -0.0000    0.0000   -0.0092    0.0000    0.0000   -0.0051
       52 CR     6d1-      -0.0000   -0.0000   -0.0000   -0.0000   -0.0000   -0.0000    0.0090   -0.0000   -0.0000    0.0051
       53 CR     7d1-       0.0000    0.0000   -0.0000   -0.0001    0.0000   -0.0000    0.0023   -0.0000   -0.0000    0.0014
       54 CR     8d1-      -0.0000   -0.0000    0.0000    0.0000   -0.0000    0.0000   -0.0031    0.0000    0.0000   -0.0008
       55 CR     9d1-       0.0000    0.0000   -0.0000   -0.0000    0.0000    0.0000   -0.0004    0.0000    0.0000   -0.0014
       56 CR    10d1-       0.0000   -0.0000   -0.0000   -0.0000    0.0000   -0.0000    0.0007   -0.0000    0.0000   -0.0004
       57 CR     3d0       -0.0000   -0.0003    0.0000   -0.0000   -0.0002    0.0262    0.0000    0.0000   -0.0617    0.0000
       58 CR     4d0        0.0000    0.0002    0.0000   -0.0000    0.0000   -0.0085   -0.0000   -0.0000    0.0180    0.0000
       59 CR     5d0       -0.0000   -0.0001   -0.0000    0.0000    0.0001   -0.0034    0.0000   -0.0000    0.0076   -0.0000
       60 CR     6d0        0.0000    0.0001    0.0000   -0.0000   -0.0003    0.0043   -0.0000    0.0000   -0.0071   -0.0000
       61 CR     7d0       -0.0000   -0.0000   -0.0000    0.0000    0.0002    0.0003   -0.0000    0.0000   -0.0021   -0.0000
       62 CR     8d0        0.0000    0.0000    0.0000   -0.0000   -0.0001   -0.0015    0.0000   -0.0000    0.0030   -0.0000
       63 CR     9d0       -0.0000   -0.0000   -0.0000    0.0000    0.0001    0.0002    0.0000   -0.0000    0.0002   -0.0000
       64 CR    10d0        0.0000   -0.0000    0.0000   -0.0000   -0.0001    0.0004    0.0000    0.0000   -0.0008   -0.0000
       65 CR     3d1+       0.0000   -0.0000    0.0005   -0.0000    0.0000    0.0000    0.0000    0.0884    0.0000    0.0000
       66 CR     4d1+       0.0000    0.0000   -0.0004    0.0000   -0.0000   -0.0000   -0.0000   -0.0262   -0.0000   -0.0000
       67 CR     5d1+      -0.0000   -0.0000    0.0002   -0.0000    0.0000    0.0000   -0.0000   -0.0092   -0.0000    0.0000
       68 CR     6d1+       0.0000    0.0000   -0.0000    0.0000   -0.0000    0.0000    0.0000    0.0090    0.0000   -0.0000
       69 CR     7d1+      -0.0000    0.0000   -0.0001    0.0000   -0.0000   -0.0000    0.0000    0.0023    0.0000   -0.0000
       70 CR     8d1+       0.0000   -0.0000    0.0000   -0.0000    0.0000   -0.0000   -0.0000   -0.0031   -0.0000    0.0000
       71 CR     9d1+      -0.0000    0.0000   -0.0000    0.0000   -0.0000    0.0000   -0.0000   -0.0004    0.0000    0.0000
       72 CR    10d1+       0.0000   -0.0000   -0.0000    0.0000   -0.0000    0.0000    0.0000    0.0007    0.0000    0.0000
       73 CR     3d2+      -0.0000   -0.0000   -0.0003    0.0000   -0.0000    0.0000   -0.0000   -0.0589   -0.0000    0.0000
       74 CR     4d2+       0.0000    0.0000    0.0002   -0.0000    0.0000   -0.0000    0.0000    0.0175    0.0000   -0.0000
       75 CR     5d2+      -0.0000    0.0000   -0.0000    0.0000   -0.0000   -0.0000    0.0000    0.0065    0.0000    0.0000
       76 CR     6d2+       0.0000    0.0000   -0.0001    0.0000   -0.0000    0.0000   -0.0000   -0.0064   -0.0000   -0.0000
       77 CR     7d2+       0.0000   -0.0000    0.0001   -0.0000    0.0000    0.0000   -0.0000   -0.0016    0.0000   -0.0000
       78 CR     8d2+      -0.0000    0.0000   -0.0001    0.0000   -0.0000   -0.0000    0.0000    0.0024    0.0000    0.0000
       79 CR     9d2+       0.0000   -0.0000    0.0000   -0.0000    0.0000   -0.0000    0.0000    0.0002   -0.0000    0.0000
       80 CR    10d2+      -0.0000   -0.0000   -0.0000    0.0000   -0.0000    0.0000   -0.0000   -0.0006   -0.0000    0.0000
       81 CR     4f3-      -0.0000   -0.0000   -0.0000   -0.0000    0.0000   -0.0000   -0.0000    0.0000   -0.0000    0.0000
       82 CR     5f3-       0.0000    0.0000    0.0000    0.0000    0.0000    0.0000   -0.0000    0.0000   -0.0000   -0.0000
       83 CR     6f3-      -0.0000   -0.0000   -0.0000   -0.0000   -0.0000   -0.0000    0.0000   -0.0000   -0.0000   -0.0000
       84 CR     7f3-       0.0000    0.0000    0.0000    0.0000    0.0000    0.0000   -0.0000    0.0000    0.0000    0.0000
       85 CR     8f3-      -0.0000   -0.0000   -0.0000   -0.0000   -0.0000   -0.0000   -0.0000    0.0000   -0.0000    0.0000
       86 CR     9f3-       0.0000    0.0000    0.0000    0.0000    0.0000    0.0000    0.0000   -0.0000   -0.0000   -0.0000
       87 CR     4f2-      -0.0000   -0.0000   -0.0000   -0.0001    0.0000   -0.0000   -0.0147    0.0000    0.0000    0.0456
       88 CR     5f2-       0.0000    0.0000    0.0000    0.0001   -0.0000   -0.0000    0.0012   -0.0000   -0.0000    0.0174
       89 CR     6f2-      -0.0000   -0.0000   -0.0000   -0.0000    0.0000    0.0000    0.0043   -0.0000   -0.0000   -0.0024
       90 CR     7f2-       0.0000   -0.0000    0.0000    0.0000   -0.0000   -0.0000   -0.0027    0.0000    0.0000   -0.0001
       91 CR     8f2-      -0.0000    0.0000    0.0000    0.0000   -0.0000   -0.0000   -0.0006    0.0000   -0.0000   -0.0004
       92 CR     9f2-       0.0000   -0.0000   -0.0000   -0.0000   -0.0000    0.0000    0.0010   -0.0000   -0.0000   -0.0006
       93 CR     4f1-      -0.0000   -0.0000   -0.0000   -0.0001    0.0000   -0.0000   -0.0105    0.0000    0.0000   -0.0172
       94 CR     5f1-       0.0000    0.0000    0.0000    0.0001   -0.0000    0.0000    0.0011   -0.0000   -0.0000   -0.0076
       95 CR     6f1-      -0.0000   -0.0000   -0.0000   -0.0001    0.0000   -0.0000    0.0022   -0.0000   -0.0000   -0.0002
       96 CR     7f1-       0.0000    0.0000    0.0000    0.0001   -0.0000    0.0000   -0.0012    0.0000    0.0000    0.0003
       97 CR     8f1-      -0.0000   -0.0000   -0.0000   -0.0000    0.0000   -0.0000   -0.0003    0.0000    0.0000    0.0003
       98 CR     9f1-      -0.0000    0.0000    0.0000    0.0000   -0.0000    0.0000    0.0002   -0.0000   -0.0000    0.0002
       99 CR     4f0        0.0000   -0.0004    0.0000   -0.0000   -0.0002    0.0342    0.0000    0.0000   -0.0135    0.0000
      100 CR     5f0       -0.0000    0.0003   -0.0000    0.0000    0.0001   -0.0057   -0.0000   -0.0000    0.0009    0.0000
      101 CR     6f0        0.0000   -0.0001    0.0000   -0.0000   -0.0001   -0.0078   -0.0000   -0.0000    0.0029    0.0000
      102 CR     7f0       -0.0000    0.0000   -0.0000    0.0000    0.0001    0.0060    0.0000    0.0000   -0.0014   -0.0000
      103 CR     8f0        0.0000    0.0000    0.0000   -0.0000   -0.0001    0.0009   -0.0000   -0.0000   -0.0004   -0.0000
      104 CR     9f0       -0.0000   -0.0000   -0.0000    0.0000    0.0000   -0.0019   -0.0000   -0.0000    0.0003   -0.0000
      105 CR     4f1+      -0.0000    0.0000   -0.0001    0.0000   -0.0000   -0.0000   -0.0000   -0.0105   -0.0000    0.0000
      106 CR     5f1+       0.0000   -0.0000    0.0001   -0.0000    0.0000    0.0000    0.0000    0.0011    0.0000    0.0000
      107 CR     6f1+      -0.0000    0.0000   -0.0001    0.0000   -0.0000    0.0000    0.0000    0.0022    0.0000    0.0000
      108 CR     7f1+       0.0000   -0.0000    0.0001   -0.0000    0.0000   -0.0000   -0.0000   -0.0012   -0.0000   -0.0000
      109 CR     8f1+      -0.0000   -0.0000   -0.0000    0.0000   -0.0000   -0.0000   -0.0000   -0.0003   -0.0000   -0.0000
      110 CR     9f1+       0.0000    0.0000    0.0000   -0.0000    0.0000    0.0000    0.0000    0.0002    0.0000   -0.0000
      111 CR     4f2+      -0.0000   -0.0000    0.0001   -0.0000    0.0000   -0.0000    0.0000    0.0147    0.0000    0.0000
      112 CR     5f2+       0.0000    0.0000   -0.0001    0.0000   -0.0000   -0.0000   -0.0000   -0.0012   -0.0000    0.0000
      113 CR     6f2+       0.0000   -0.0000    0.0000   -0.0000    0.0000    0.0000   -0.0000   -0.0043    0.0000   -0.0000
      114 CR     7f2+       0.0000    0.0000   -0.0000    0.0000   -0.0000   -0.0000    0.0000    0.0027    0.0000   -0.0000
      115 CR     8f2+      -0.0000   -0.0000   -0.0000    0.0000   -0.0000   -0.0000    0.0000    0.0006   -0.0000   -0.0000
      116 CR     9f2+       0.0000    0.0000    0.0000   -0.0000    0.0000    0.0000   -0.0000   -0.0010   -0.0000   -0.0000
      117 CR     4f3+       0.0000   -0.0003   -0.0000    0.0000    0.0001    0.0220   -0.0000   -0.0000    0.0169   -0.0000
      118 CR     5f3+      -0.0000    0.0002    0.0000   -0.0000   -0.0001   -0.0037   -0.0000   -0.0000   -0.0013    0.0000
      119 CR     6f3+       0.0000   -0.0001   -0.0000    0.0000    0.0000   -0.0050    0.0000    0.0000   -0.0047    0.0000
      120 CR     7f3+      -0.0000    0.0000    0.0000   -0.0000   -0.0000    0.0038    0.0000   -0.0000    0.0029    0.0000
      121 CR     8f3+       0.0000    0.0000   -0.0000    0.0000   -0.0000    0.0006   -0.0000   -0.0000    0.0007   -0.0000
      122 CR     9f3+      -0.0000   -0.0000    0.0000   -0.0000    0.0000   -0.0012   -0.0000   -0.0000   -0.0010   -0.0000
      123 CR     5g4-      -0.0000   -0.0000   -0.0000   -0.0002    0.0000   -0.0000   -0.0130    0.0000    0.0000   -0.0025
      124 CR     6g4-       0.0000    0.0000    0.0000    0.0001   -0.0000   -0.0000   -0.0021    0.0000    0.0000   -0.0013
      125 CR     7g4-      -0.0000   -0.0000   -0.0000   -0.0000    0.0000    0.0000    0.0032   -0.0000   -0.0000   -0.0001
      126 CR     8g4-       0.0000    0.0000    0.0000    0.0000   -0.0000   -0.0000   -0.0004    0.0000    0.0000    0.0002
      127 CR     5g3-       0.0000    0.0000    0.0000    0.0000    0.0000   -0.0000    0.0000   -0.0000   -0.0000   -0.0000
      128 CR     6g3-      -0.0000   -0.0000   -0.0000   -0.0000    0.0000    0.0000    0.0000   -0.0000    0.0000    0.0000
      129 CR     7g3-       0.0000    0.0000   -0.0000   -0.0000    0.0000   -0.0000   -0.0000    0.0000   -0.0000    0.0000
      130 CR     8g3-      -0.0000   -0.0000    0.0000    0.0000    0.0000    0.0000    0.0000   -0.0000    0.0000   -0.0000
      131 CR     5g2-      -0.0000   -0.0000    0.0000    0.0000   -0.0000    0.0000    0.0012   -0.0000   -0.0000   -0.0031
      132 CR     6g2-       0.0000    0.0000   -0.0000   -0.0000   -0.0000    0.0000    0.0002   -0.0000   -0.0000   -0.0017
      133 CR     7g2-      -0.0000   -0.0000   -0.0000   -0.0000    0.0000   -0.0000   -0.0007    0.0000    0.0000   -0.0004
      134 CR     8g2-       0.0000    0.0000    0.0000    0.0000   -0.0000    0.0000    0.0003   -0.0000   -0.0000   -0.0001
      135 CR     5g1-       0.0000   -0.0000   -0.0000   -0.0002    0.0000   -0.0000   -0.0162    0.0000    0.0000    0.0119
      136 CR     6g1-       0.0000   -0.0000    0.0000    0.0001   -0.0000    0.0000   -0.0026    0.0000    0.0000    0.0061
      137 CR     7g1-      -0.0000    0.0000   -0.0000   -0.0000    0.0000   -0.0000    0.0038   -0.0000   -0.0000   -0.0001
      138 CR     8g1-       0.0000    0.0000    0.0000    0.0000    0.0000    0.0000   -0.0004    0.0000    0.0000   -0.0003
      139 CR     5g0        0.0000   -0.0000    0.0000   -0.0000   -0.0003    0.0021   -0.0000    0.0000   -0.0273    0.0000
      140 CR     6g0       -0.0000    0.0000   -0.0000    0.0000    0.0002    0.0002   -0.0000    0.0000   -0.0046   -0.0000
      141 CR     7g0       -0.0000   -0.0000    0.0000   -0.0000   -0.0001   -0.0006   -0.0000   -0.0000    0.0071   -0.0000
      142 CR     8g0        0.0000    0.0000   -0.0000    0.0000   -0.0000    0.0002    0.0000   -0.0000   -0.0011   -0.0000
      143 CR     5g1+      -0.0000    0.0000   -0.0002    0.0000   -0.0000   -0.0000   -0.0000   -0.0162   -0.0000   -0.0000
      144 CR     6g1+       0.0000   -0.0000    0.0001   -0.0000    0.0000    0.0000   -0.0000   -0.0026   -0.0000   -0.0000
      145 CR     7g1+      -0.0000    0.0000   -0.0000    0.0000   -0.0000   -0.0000    0.0000    0.0038    0.0000    0.0000
      146 CR     8g1+      -0.0000   -0.0000    0.0000   -0.0000    0.0000   -0.0000   -0.0000   -0.0004   -0.0000    0.0000
      147 CR     5g2+      -0.0000    0.0000   -0.0000    0.0000   -0.0000   -0.0000   -0.0000   -0.0012   -0.0000   -0.0000
      148 CR     6g2+       0.0000   -0.0000    0.0000   -0.0000    0.0000    0.0000   -0.0000   -0.0002    0.0000   -0.0000
      149 CR     7g2+      -0.0000    0.0000    0.0000   -0.0000   -0.0000    0.0000    0.0000    0.0007    0.0000   -0.0000
      150 CR     8g2+      -0.0000   -0.0000   -0.0000    0.0000    0.0000   -0.0000   -0.0000   -0.0003   -0.0000   -0.0000
      151 CR     5g3+      -0.0000    0.0002    0.0000   -0.0000   -0.0001   -0.0132    0.0000    0.0000   -0.0172   -0.0000
      152 CR     6g3+       0.0000   -0.0001   -0.0000    0.0000    0.0001   -0.0010    0.0000    0.0000   -0.0028   -0.0000
      153 CR     7g3+      -0.0000    0.0000   -0.0000    0.0000   -0.0000    0.0040   -0.0000   -0.0000    0.0047   -0.0000
      154 CR     8g3+      -0.0000   -0.0000    0.0000   -0.0000   -0.0000   -0.0014   -0.0000   -0.0000   -0.0009   -0.0000
      155 CR     5g4+      -0.0000    0.0000   -0.0002    0.0000   -0.0000   -0.0000   -0.0000   -0.0130   -0.0000    0.0000
      156 CR     6g4+       0.0000   -0.0000    0.0001   -0.0000    0.0000    0.0000   -0.0000   -0.0021   -0.0000    0.0000
      157 CR     7g4+      -0.0000    0.0000   -0.0000    0.0000   -0.0000    0.0000    0.0000    0.0032    0.0000    0.0000
      158 CR     8g4+      -0.0000   -0.0000    0.0000   -0.0000   -0.0000   -0.0000   -0.0000   -0.0004   -0.0000   -0.0000
      159 CR     6h5-      -0.0000   -0.0000    0.0000    0.0000    0.0000   -0.0000    0.0018   -0.0000   -0.0000   -0.0102
      160 CR     7h5-       0.0000    0.0000   -0.0000   -0.0000   -0.0000    0.0000    0.0001   -0.0000   -0.0000   -0.0046
      161 CR     6h4-      -0.0000    0.0000    0.0000    0.0001   -0.0000    0.0000    0.0087   -0.0000   -0.0000    0.0039
      162 CR     7h4-      -0.0000    0.0000   -0.0000   -0.0000    0.0000   -0.0000    0.0007   -0.0000   -0.0000    0.0019
      163 CR     6h3-      -0.0000   -0.0000   -0.0000   -0.0000    0.0000   -0.0000   -0.0000    0.0000    0.0000    0.0000
      164 CR     7h3-       0.0000    0.0000   -0.0000   -0.0000   -0.0000    0.0000   -0.0000   -0.0000    0.0000   -0.0000
      165 CR     6h2-      -0.0000    0.0000    0.0000    0.0000   -0.0000    0.0000    0.0027   -0.0000   -0.0000   -0.0080
      166 CR     7h2-      -0.0000    0.0000   -0.0000   -0.0000    0.0000   -0.0000    0.0002   -0.0000    0.0000   -0.0037
      167 CR     6h1-      -0.0000   -0.0000    0.0000    0.0000   -0.0000   -0.0000    0.0020   -0.0000   -0.0000    0.0070
      168 CR     7h1-       0.0000    0.0000   -0.0000   -0.0000    0.0000    0.0000   -0.0000    0.0000    0.0000    0.0036
      169 CR     6h0        0.0000   -0.0000    0.0000   -0.0000   -0.0000    0.0028   -0.0000    0.0000   -0.0057    0.0000
      170 CR     7h0       -0.0000    0.0000   -0.0000    0.0000    0.0000   -0.0001   -0.0000    0.0000   -0.0004    0.0000
      171 CR     6h1+       0.0000   -0.0000    0.0000   -0.0000    0.0000    0.0000    0.0000    0.0020    0.0000   -0.0000
      172 CR     7h1+      -0.0000    0.0000   -0.0000    0.0000   -0.0000   -0.0000   -0.0000   -0.0000   -0.0000   -0.0000
      173 CR     6h2+       0.0000   -0.0000   -0.0000    0.0000   -0.0000    0.0000   -0.0000   -0.0027    0.0000   -0.0000
      174 CR     7h2+      -0.0000    0.0000    0.0000   -0.0000    0.0000    0.0000   -0.0000   -0.0002    0.0000   -0.0000
      175 CR     6h3+       0.0000   -0.0000   -0.0000    0.0000    0.0001    0.0044    0.0000   -0.0000    0.0092    0.0000
      176 CR     7h3+      -0.0000    0.0000    0.0000   -0.0000   -0.0000   -0.0001    0.0000   -0.0000    0.0008    0.0000
      177 CR     6h4+       0.0000   -0.0000    0.0001   -0.0000    0.0000    0.0000    0.0000    0.0087    0.0000   -0.0000
      178 CR     7h4+      -0.0000    0.0000   -0.0000    0.0000   -0.0000   -0.0000    0.0000    0.0007   -0.0000   -0.0000
      179 CR     6h5+       0.0000   -0.0000   -0.0000    0.0000   -0.0000    0.0000   -0.0000   -0.0018    0.0000   -0.0000
      180 CR     7h5+      -0.0000    0.0000    0.0000   -0.0000    0.0000    0.0000   -0.0000   -0.0001    0.0000   -0.0000

          Orbital           11        12        13        14        15        16        17        18        19        20    
          Energy           -0.5945   -0.5067   -0.4324   -0.4324   -0.4310   -0.3578   -0.3578   -0.3381   -0.2189   -0.2034
          Occ. No.          0.0000    0.0000    0.0000    0.0000    0.0000    0.0000    0.0000    0.0000    0.0000    0.0000

        1 CR     1s         0.0000    0.0000   -0.0000    0.0000    0.0000    0.0000   -0.0000    0.0000    0.0000    0.0000
        2 CR     2s         0.0000    0.0002   -0.0000    0.0000    0.0003    0.0000   -0.0000    0.0000    0.0001    0.0000
        3 CR     3s         0.0000   -0.0289   -0.0000    0.0000    0.0277    0.0000   -0.0000   -0.0060   -0.0159    0.0000
        4 CR     4s        -0.0000   -0.9294   -0.0000    0.0000    0.2683    0.0000    0.0000   -0.1866    0.1455   -0.0000
        5 CR     5s         0.0000    0.1299   -0.0000    0.0000    0.0221    0.0000   -0.0000   -0.0213    0.7005   -0.0000
        6 CR     6s         0.0000    0.0826    0.0000   -0.0000   -0.0144    0.0000    0.0000   -0.0096    0.6197   -0.0000
        7 CR     7s        -0.0000    0.0086    0.0000   -0.0000   -0.0125   -0.0000   -0.0000    0.0056    0.2371   -0.0000
        8 CR     8s        -0.0000   -0.0157    0.0000   -0.0000   -0.0011   -0.0000    0.0000    0.0040    0.0873   -0.0000
        9 CR     9s        -0.0000   -0.0065   -0.0000    0.0000    0.0009    0.0000    0.0000    0.0004   -0.0023   -0.0000
       10 CR    10s        -0.0000   -0.0006   -0.0000    0.0000    0.0000   -0.0000    0.0000    0.0001   -0.0009   -0.0000
       11 CR     2px       -0.0000    0.0000   -0.0010    0.0000   -0.0000   -0.0000    0.0001   -0.0000   -0.0000    0.0000
       12 CR     3px        0.0051    0.0000   -0.0753    0.0000   -0.0000   -0.0000    0.0714   -0.0000   -0.0000    0.0000
       13 CR     4px        0.0076    0.0000    0.3305   -0.0000    0.0000   -0.0000    0.9138   -0.0000    0.0000    0.0000
       14 CR     5px        0.0025    0.0000   -0.0160    0.0000   -0.0000   -0.0000    0.2147   -0.0000   -0.0000   -0.0000
       15 CR     6px       -0.0023   -0.0000   -0.0141    0.0000   -0.0000   -0.0000    0.0535   -0.0000   -0.0000   -0.0000
       16 CR     7px        0.0003   -0.0000   -0.0055    0.0000   -0.0000    0.0000   -0.0457    0.0000   -0.0000   -0.0000
       17 CR     8px        0.0009    0.0000   -0.0015    0.0000   -0.0000    0.0000   -0.0360    0.0000    0.0000   -0.0000
       18 CR     9px       -0.0002   -0.0000    0.0035   -0.0000    0.0000    0.0000   -0.0100    0.0000    0.0000    0.0000
       19 CR    10px       -0.0003   -0.0000    0.0022   -0.0000    0.0000    0.0000   -0.0012    0.0000    0.0000    0.0000
       20 CR    11px       -0.0000   -0.0000    0.0003   -0.0000    0.0000   -0.0000    0.0001    0.0000    0.0000    0.0000
       21 CR     2py       -0.0000   -0.0000   -0.0000   -0.0010    0.0000   -0.0001   -0.0000   -0.0000   -0.0000    0.0000
       22 CR     3py        0.0000    0.0000   -0.0000   -0.0753    0.0000   -0.0714   -0.0000   -0.0000    0.0000    0.0057
       23 CR     4py        0.0000    0.0000    0.0000    0.3305   -0.0000   -0.9138   -0.0000   -0.0000    0.0000    0.0141
       24 CR     5py        0.0000    0.0000   -0.0000   -0.0160    0.0000   -0.2147   -0.0000   -0.0000   -0.0000   -0.0022
       25 CR     6py       -0.0000    0.0000   -0.0000   -0.0141    0.0000   -0.0535   -0.0000   -0.0000   -0.0000   -0.0141
       26 CR     7py        0.0000   -0.0000   -0.0000   -0.0055   -0.0000    0.0457    0.0000    0.0000   -0.0000   -0.0053
       27 CR     8py        0.0000   -0.0000   -0.0000   -0.0015   -0.0000    0.0360    0.0000    0.0000    0.0000   -0.0012
       28 CR     9py       -0.0000   -0.0000    0.0000    0.0035   -0.0000    0.0100    0.0000    0.0000    0.0000    0.0001
       29 CR    10py       -0.0000    0.0000    0.0000    0.0022   -0.0000    0.0012    0.0000    0.0000    0.0000    0.0001
       30 CR    11py       -0.0000    0.0000    0.0000    0.0003    0.0000   -0.0001   -0.0000    0.0000    0.0000    0.0000
       31 CR     2pz       -0.0000    0.0002   -0.0000    0.0000    0.0004    0.0000    0.0000   -0.0003    0.0000   -0.0000
       32 CR     3pz       -0.0000    0.0103   -0.0000    0.0000    0.0566    0.0000    0.0000    0.0372   -0.0045    0.0000
       33 CR     4pz       -0.0000   -0.1813   -0.0000    0.0000    0.0545   -0.0000    0.0000    0.9415    0.0105    0.0000
       34 CR     5pz       -0.0000    0.0065   -0.0000    0.0000    0.0404   -0.0000    0.0000    0.2427    0.0947   -0.0000
       35 CR     6pz        0.0000    0.0187    0.0000   -0.0000   -0.0057   -0.0000    0.0000    0.1004    0.1560   -0.0000
       36 CR     7pz       -0.0000    0.0008    0.0000   -0.0000   -0.0044    0.0000   -0.0000   -0.0488    0.0379   -0.0000
       37 CR     8pz       -0.0000   -0.0032   -0.0000    0.0000    0.0007    0.0000   -0.0000   -0.0485   -0.0019    0.0000
       38 CR     9pz       -0.0000   -0.0025    0.0000   -0.0000   -0.0018   -0.0000   -0.0000   -0.0146   -0.0089    0.0000
       39 CR    10pz        0.0000   -0.0010    0.0000   -0.0000   -0.0014   -0.0000    0.0000   -0.0019   -0.0040    0.0000
       40 CR    11pz        0.0000   -0.0001    0.0000   -0.0000   -0.0002   -0.0000    0.0000    0.0000   -0.0006    0.0000
       41 CR     3d2-      -0.0000   -0.0000    0.0000    0.4719   -0.0000    0.1531    0.0000    0.0000    0.0000    0.0162
       42 CR     4d2-       0.0000    0.0000    0.0000    0.0346   -0.0000   -0.0173   -0.0000    0.0000    0.0000    0.5098
       43 CR     5d2-      -0.0000    0.0000    0.0000    0.0500   -0.0000    0.0152    0.0000    0.0000   -0.0000    0.5406
       44 CR     6d2-       0.0000    0.0000   -0.0000   -0.0034    0.0000    0.0013    0.0000   -0.0000   -0.0000    0.3815
       45 CR     7d2-       0.0000    0.0000   -0.0000   -0.0041    0.0000    0.0002    0.0000   -0.0000   -0.0000    0.3544
       46 CR     8d2-      -0.0000    0.0000   -0.0000   -0.0016    0.0000   -0.0003   -0.0000   -0.0000   -0.0000    0.1024
       47 CR     9d2-      -0.0000    0.0000    0.0000    0.0009   -0.0000    0.0006    0.0000   -0.0000   -0.0000    0.0026
       48 CR    10d2-      -0.0000    0.0000   -0.0000   -0.0003    0.0000   -0.0000   -0.0000   -0.0000   -0.0000   -0.0024
       49 CR     3d1-       0.0000   -0.0000    0.0000    0.7995   -0.0000    0.2746    0.0000    0.0000   -0.0000   -0.0298
       50 CR     4d1-      -0.0000    0.0000    0.0000    0.0553   -0.0000   -0.0682   -0.0000   -0.0000   -0.0000   -0.2234
       51 CR     5d1-       0.0000    0.0000    0.0000    0.0830   -0.0000   -0.0028   -0.0000   -0.0000   -0.0000   -0.2396
       52 CR     6d1-      -0.0000    0.0000   -0.0000   -0.0029    0.0000   -0.0086   -0.0000   -0.0000   -0.0000   -0.1664
       53 CR     7d1-      -0.0000    0.0000   -0.0000   -0.0056    0.0000   -0.0040   -0.0000   -0.0000   -0.0000   -0.1548
       54 CR     8d1-       0.0000    0.0000   -0.0000   -0.0041    0.0000    0.0023    0.0000    0.0000   -0.0000   -0.0450
       55 CR     9d1-       0.0000    0.0000    0.0000    0.0009   -0.0000    0.0026    0.0000    0.0000   -0.0000   -0.0013
       56 CR    10d1-       0.0000    0.0000   -0.0000   -0.0004    0.0000    0.0004    0.0000    0.0000    0.0000    0.0011
       57 CR     3d0        0.0000    0.2689   -0.0000    0.0000    0.9519    0.0000   -0.0000   -0.0168   -0.0439    0.0000
       58 CR     4d0        0.0000    0.0318   -0.0000    0.0000    0.0135    0.0000    0.0000    0.0198   -0.0024   -0.0000
       59 CR     5d0        0.0000    0.0181   -0.0000    0.0000    0.0832    0.0000   -0.0000    0.0258   -0.0284   -0.0000
       60 CR     6d0       -0.0000   -0.0063    0.0000   -0.0000   -0.0030    0.0000    0.0000    0.0144   -0.0187   -0.0000
       61 CR     7d0       -0.0000   -0.0036    0.0000   -0.0000   -0.0052   -0.0000    0.0000    0.0072   -0.0158   -0.0000
       62 CR     8d0        0.0000    0.0001    0.0000   -0.0000   -0.0037   -0.0000    0.0000   -0.0027   -0.0033   -0.0000
       63 CR     9d0        0.0000    0.0008   -0.0000    0.0000    0.0017    0.0000   -0.0000   -0.0017    0.0002   -0.0000
       64 CR    10d0       -0.0000   -0.0000    0.0000   -0.0000   -0.0001    0.0000   -0.0000   -0.0003    0.0002    0.0000
       65 CR     3d1+       0.5085   -0.0000    0.7995   -0.0000    0.0000    0.0000   -0.2746    0.0000    0.0000   -0.0000
       66 CR     4d1+      -0.0306    0.0000    0.0553   -0.0000    0.0000   -0.0000    0.0682   -0.0000    0.0000   -0.0000
       67 CR     5d1+       0.0051   -0.0000    0.0830   -0.0000    0.0000   -0.0000    0.0028    0.0000    0.0000   -0.0000
       68 CR     6d1+      -0.0051    0.0000   -0.0029    0.0000   -0.0000   -0.0000    0.0086   -0.0000    0.0000   -0.0000
       69 CR     7d1+      -0.0014    0.0000   -0.0056    0.0000   -0.0000   -0.0000    0.0040   -0.0000    0.0000   -0.0000
       70 CR     8d1+       0.0008   -0.0000   -0.0041    0.0000   -0.0000    0.0000   -0.0023    0.0000   -0.0000   -0.0000
       71 CR     9d1+       0.0014   -0.0000    0.0009   -0.0000    0.0000    0.0000   -0.0026    0.0000   -0.0000   -0.0000
       72 CR    10d1+       0.0004   -0.0000   -0.0004    0.0000   -0.0000    0.0000   -0.0004    0.0000   -0.0000    0.0000
       73 CR     3d2+       0.8571   -0.0000   -0.4719    0.0000   -0.0000   -0.0000    0.1531   -0.0000   -0.0000   -0.0000
       74 CR     4d2+      -0.0477    0.0000   -0.0346    0.0000   -0.0000    0.0000   -0.0173    0.0000   -0.0000   -0.0000
       75 CR     5d2+       0.0120    0.0000   -0.0500    0.0000   -0.0000   -0.0000    0.0152   -0.0000   -0.0000   -0.0000
       76 CR     6d2+      -0.0104   -0.0000    0.0034   -0.0000    0.0000   -0.0000    0.0013    0.0000   -0.0000   -0.0000
       77 CR     7d2+      -0.0036   -0.0000    0.0041   -0.0000    0.0000   -0.0000    0.0002   -0.0000   -0.0000   -0.0000
       78 CR     8d2+       0.0024   -0.0000    0.0016   -0.0000    0.0000    0.0000   -0.0003   -0.0000   -0.0000   -0.0000
       79 CR     9d2+       0.0028   -0.0000   -0.0009    0.0000   -0.0000   -0.0000    0.0006   -0.0000    0.0000   -0.0000
       80 CR    10d2+       0.0006   -0.0000    0.0003   -0.0000    0.0000    0.0000   -0.0000   -0.0000    0.0000    0.0000
       81 CR     4f3-       0.0000    0.0000    0.0000    0.0000   -0.0000    0.0000    0.0000    0.0000    0.0000   -0.0000
       82 CR     5f3-       0.0000   -0.0000   -0.0000   -0.0000   -0.0000    0.0000    0.0000    0.0000    0.0000   -0.0000
       83 CR     6f3-      -0.0000   -0.0000   -0.0000   -0.0000   -0.0000    0.0000    0.0000   -0.0000    0.0000   -0.0000
       84 CR     7f3-      -0.0000   -0.0000   -0.0000    0.0000   -0.0000    0.0000    0.0000   -0.0000    0.0000   -0.0000
       85 CR     8f3-      -0.0000   -0.0000   -0.0000    0.0000   -0.0000    0.0000    0.0000   -0.0000    0.0000   -0.0000
       86 CR     9f3-      -0.0000   -0.0000   -0.0000   -0.0000   -0.0000   -0.0000    0.0000   -0.0000    0.0000   -0.0000
       87 CR     4f2-      -0.0000   -0.0000    0.0000    0.0808   -0.0000    0.0396    0.0000    0.0000   -0.0000    0.0017
       88 CR     5f2-      -0.0000   -0.0000    0.0000    0.0314   -0.0000    0.0224    0.0000    0.0000   -0.0000    0.0260
       89 CR     6f2-       0.0000   -0.0000   -0.0000   -0.0033    0.0000    0.0022    0.0000    0.0000   -0.0000    0.0339
       90 CR     7f2-       0.0000   -0.0000    0.0000    0.0039   -0.0000    0.0019    0.0000    0.0000   -0.0000    0.0257
       91 CR     8f2-       0.0000    0.0000    0.0000    0.0005   -0.0000    0.0005    0.0000    0.0000   -0.0000    0.0139
       92 CR     9f2-       0.0000   -0.0000   -0.0000   -0.0018    0.0000   -0.0004   -0.0000   -0.0000   -0.0000    0.0098
       93 CR     4f1-       0.0000   -0.0000    0.0000    0.0132   -0.0000    0.0152    0.0000    0.0000   -0.0000   -0.0046
       94 CR     5f1-       0.0000   -0.0000    0.0000    0.0058   -0.0000    0.0169    0.0000    0.0000   -0.0000   -0.0143
       95 CR     6f1-       0.0000   -0.0000    0.0000    0.0017   -0.0000    0.0088    0.0000    0.0000    0.0000   -0.0169
       96 CR     7f1-      -0.0000   -0.0000    0.0000    0.0015   -0.0000    0.0032    0.0000    0.0000    0.0000   -0.0134
       97 CR     8f1-      -0.0000   -0.0000    0.0000    0.0002   -0.0000    0.0004    0.0000    0.0000    0.0000   -0.0073
       98 CR     9f1-      -0.0000   -0.0000   -0.0000   -0.0004    0.0000   -0.0003   -0.0000    0.0000    0.0000   -0.0050
       99 CR     4f0       -0.0000    0.0288    0.0000   -0.0000   -0.0433   -0.0000    0.0000   -0.0057    0.0262   -0.0000
      100 CR     5f0        0.0000    0.0373    0.0000   -0.0000   -0.0161    0.0000   -0.0000   -0.0119    0.0240   -0.0000
      101 CR     6f0        0.0000    0.0103   -0.0000    0.0000    0.0063    0.0000   -0.0000   -0.0088    0.0029   -0.0000
      102 CR     7f0       -0.0000   -0.0028    0.0000   -0.0000   -0.0009    0.0000   -0.0000   -0.0034   -0.0033   -0.0000
      103 CR     8f0       -0.0000   -0.0015    0.0000   -0.0000   -0.0004    0.0000   -0.0000   -0.0007   -0.0020   -0.0000
      104 CR     9f0        0.0000   -0.0002   -0.0000    0.0000    0.0010    0.0000   -0.0000   -0.0000   -0.0013   -0.0000
      105 CR     4f1+       0.0172   -0.0000    0.0132   -0.0000    0.0000    0.0000   -0.0152    0.0000   -0.0000   -0.0000
      106 CR     5f1+       0.0076   -0.0000    0.0058   -0.0000    0.0000    0.0000   -0.0169    0.0000   -0.0000   -0.0000
      107 CR     6f1+       0.0002   -0.0000    0.0017   -0.0000    0.0000    0.0000   -0.0088    0.0000    0.0000   -0.0000
      108 CR     7f1+      -0.0003    0.0000    0.0015   -0.0000    0.0000    0.0000   -0.0032    0.0000    0.0000   -0.0000
      109 CR     8f1+      -0.0003    0.0000    0.0002   -0.0000    0.0000    0.0000   -0.0004    0.0000    0.0000   -0.0000
      110 CR     9f1+      -0.0002    0.0000   -0.0004    0.0000   -0.0000   -0.0000    0.0003   -0.0000    0.0000   -0.0000
      111 CR     4f2+       0.0456   -0.0000   -0.0808    0.0000   -0.0000   -0.0000    0.0396   -0.0000   -0.0000   -0.0000
      112 CR     5f2+       0.0174   -0.0000   -0.0314    0.0000   -0.0000   -0.0000    0.0224   -0.0000   -0.0000   -0.0000
      113 CR     6f2+      -0.0024   -0.0000    0.0033   -0.0000    0.0000   -0.0000    0.0022   -0.0000   -0.0000   -0.0000
      114 CR     7f2+      -0.0001    0.0000   -0.0039    0.0000   -0.0000   -0.0000    0.0019   -0.0000   -0.0000   -0.0000
      115 CR     8f2+      -0.0004    0.0000   -0.0005    0.0000   -0.0000   -0.0000    0.0005   -0.0000   -0.0000   -0.0000
      116 CR     9f2+      -0.0006   -0.0000    0.0018   -0.0000    0.0000    0.0000   -0.0004   -0.0000   -0.0000   -0.0000
      117 CR     4f3+       0.0000    0.0319   -0.0000    0.0000    0.0308    0.0000   -0.0000    0.0112    0.0126    0.0000
      118 CR     5f3+       0.0000    0.0260   -0.0000    0.0000    0.0091    0.0000   -0.0000    0.0139    0.0128    0.0000
      119 CR     6f3+       0.0000    0.0035    0.0000   -0.0000   -0.0030    0.0000   -0.0000    0.0052    0.0020    0.0000
      120 CR     7f3+      -0.0000   -0.0015   -0.0000    0.0000    0.0009    0.0000   -0.0000    0.0008   -0.0017    0.0000
      121 CR     8f3+      -0.0000   -0.0007   -0.0000    0.0000    0.0001    0.0000   -0.0000    0.0002   -0.0009    0.0000
      122 CR     9f3+       0.0000   -0.0003    0.0000   -0.0000   -0.0004   -0.0000   -0.0000    0.0002   -0.0005    0.0000
      123 CR     5g4-       0.0000   -0.0000    0.0000    0.0132   -0.0000    0.0108    0.0000    0.0000   -0.0000   -0.0006
      124 CR     6g4-       0.0000   -0.0000    0.0000    0.0037   -0.0000    0.0112    0.0000    0.0000   -0.0000   -0.0008
      125 CR     7g4-       0.0000   -0.0000   -0.0000   -0.0033    0.0000    0.0045    0.0000    0.0000   -0.0000   -0.0004
      126 CR     8g4-      -0.0000   -0.0000   -0.0000   -0.0004    0.0000    0.0015    0.0000    0.0000   -0.0000   -0.0003
      127 CR     5g3-       0.0000    0.0000   -0.0000   -0.0000   -0.0000   -0.0000   -0.0000   -0.0000    0.0000    0.0000
      128 CR     6g3-      -0.0000   -0.0000   -0.0000   -0.0000   -0.0000   -0.0000   -0.0000    0.0000    0.0000    0.0000
      129 CR     7g3-      -0.0000    0.0000   -0.0000    0.0000   -0.0000   -0.0000   -0.0000    0.0000    0.0000    0.0000
      130 CR     8g3-       0.0000   -0.0000   -0.0000   -0.0000   -0.0000   -0.0000   -0.0000   -0.0000    0.0000    0.0000
      131 CR     5g2-       0.0000   -0.0000   -0.0000   -0.0133    0.0000   -0.0048   -0.0000   -0.0000   -0.0000    0.0007
      132 CR     6g2-       0.0000    0.0000   -0.0000   -0.0066    0.0000   -0.0017   -0.0000   -0.0000    0.0000   -0.0007
      133 CR     7g2-       0.0000   -0.0000    0.0000    0.0007   -0.0000    0.0012    0.0000    0.0000   -0.0000   -0.0013
      134 CR     8g2-       0.0000   -0.0000   -0.0000   -0.0001    0.0000    0.0006    0.0000    0.0000    0.0000   -0.0009
      135 CR     5g1-      -0.0000   -0.0000   -0.0000   -0.0001   -0.0000    0.0070    0.0000    0.0000   -0.0000   -0.0015
      136 CR     6g1-      -0.0000   -0.0000   -0.0000   -0.0055    0.0000    0.0105    0.0000    0.0000   -0.0000    0.0007
      137 CR     7g1-       0.0000   -0.0000   -0.0000   -0.0056    0.0000    0.0056    0.0000    0.0000   -0.0000    0.0017
      138 CR     8g1-       0.0000   -0.0000   -0.0000   -0.0008    0.0000    0.0021    0.0000    0.0000   -0.0000    0.0010
      139 CR     5g0       -0.0000   -0.0051    0.0000   -0.0000   -0.0296   -0.0000   -0.0000   -0.0085    0.0031   -0.0000
      140 CR     6g0       -0.0000    0.0003    0.0000   -0.0000   -0.0161   -0.0000   -0.0000   -0.0153    0.0033    0.0000
      141 CR     7g0       -0.0000    0.0023   -0.0000    0.0000    0.0001    0.0000   -0.0000   -0.0092    0.0011    0.0000
      142 CR     8g0        0.0000    0.0001    0.0000   -0.0000   -0.0007   -0.0000   -0.0000   -0.0027    0.0001    0.0000
      143 CR     5g1+      -0.0119    0.0000   -0.0001    0.0000   -0.0000    0.0000   -0.0070    0.0000    0.0000   -0.0000
      144 CR     6g1+      -0.0061    0.0000   -0.0055    0.0000   -0.0000    0.0000   -0.0105    0.0000    0.0000    0.0000
      145 CR     7g1+       0.0001    0.0000   -0.0056    0.0000   -0.0000    0.0000   -0.0056    0.0000   -0.0000    0.0000
      146 CR     8g1+       0.0003   -0.0000   -0.0008    0.0000   -0.0000    0.0000   -0.0021    0.0000   -0.0000    0.0000
      147 CR     5g2+      -0.0031   -0.0000    0.0133   -0.0000    0.0000    0.0000   -0.0048    0.0000    0.0000   -0.0000
      148 CR     6g2+      -0.0017   -0.0000    0.0066   -0.0000    0.0000    0.0000   -0.0017    0.0000    0.0000    0.0000
      149 CR     7g2+      -0.0004   -0.0000   -0.0007    0.0000   -0.0000   -0.0000    0.0012    0.0000    0.0000    0.0000
      150 CR     8g2+      -0.0001   -0.0000    0.0001   -0.0000    0.0000   -0.0000    0.0006    0.0000    0.0000    0.0000
      151 CR     5g3+      -0.0000   -0.0086    0.0000   -0.0000   -0.0046   -0.0000    0.0000   -0.0061   -0.0036   -0.0000
      152 CR     6g3+      -0.0000   -0.0086    0.0000   -0.0000   -0.0006    0.0000    0.0000   -0.0097   -0.0040    0.0000
      153 CR     7g3+      -0.0000   -0.0015   -0.0000    0.0000    0.0015    0.0000    0.0000   -0.0050   -0.0006    0.0000
      154 CR     8g3+      -0.0000    0.0011    0.0000   -0.0000   -0.0000    0.0000   -0.0000   -0.0010    0.0009    0.0000
      155 CR     5g4+       0.0025   -0.0000    0.0132   -0.0000    0.0000    0.0000   -0.0108    0.0000   -0.0000   -0.0000
      156 CR     6g4+       0.0013   -0.0000    0.0037   -0.0000    0.0000    0.0000   -0.0112    0.0000   -0.0000   -0.0000
      157 CR     7g4+       0.0001    0.0000   -0.0033    0.0000   -0.0000    0.0000   -0.0045    0.0000   -0.0000   -0.0000
      158 CR     8g4+      -0.0002   -0.0000   -0.0004    0.0000   -0.0000    0.0000   -0.0015    0.0000   -0.0000   -0.0000
      159 CR     6h5-       0.0000    0.0000   -0.0000   -0.0084    0.0000   -0.0034   -0.0000   -0.0000    0.0000    0.0016
      160 CR     7h5-       0.0000    0.0000   -0.0000   -0.0034    0.0000   -0.0017   -0.0000   -0.0000   -0.0000   -0.0002
      161 CR     6h4-      -0.0000    0.0000   -0.0000   -0.0138    0.0000   -0.0076   -0.0000   -0.0000    0.0000    0.0003
      162 CR     7h4-      -0.0000    0.0000   -0.0000   -0.0043    0.0000   -0.0050   -0.0000   -0.0000    0.0000    0.0004
      163 CR     6h3-      -0.0000   -0.0000    0.0000    0.0000    0.0000    0.0000   -0.0000   -0.0000    0.0000   -0.0000
      164 CR     7h3-      -0.0000   -0.0000    0.0000    0.0000   -0.0000    0.0000    0.0000    0.0000   -0.0000   -0.0000
      165 CR     6h2-       0.0000    0.0000   -0.0000   -0.0076    0.0000   -0.0035   -0.0000   -0.0000    0.0000    0.0013
      166 CR     7h2-       0.0000    0.0000   -0.0000   -0.0033    0.0000   -0.0023   -0.0000   -0.0000    0.0000   -0.0001
      167 CR     6h1-      -0.0000    0.0000   -0.0000   -0.0182    0.0000   -0.0074   -0.0000   -0.0000    0.0000    0.0001
      168 CR     7h1-      -0.0000    0.0000   -0.0000   -0.0079    0.0000   -0.0032   -0.0000   -0.0000   -0.0000    0.0005
      169 CR     6h0       -0.0000   -0.0056    0.0000   -0.0000   -0.0262   -0.0000    0.0000   -0.0003    0.0020   -0.0000
      170 CR     7h0       -0.0000   -0.0016    0.0000   -0.0000   -0.0114   -0.0000    0.0000   -0.0011    0.0013    0.0000
      171 CR     6h1+      -0.0070    0.0000   -0.0182    0.0000   -0.0000   -0.0000    0.0074   -0.0000   -0.0000    0.0000
      172 CR     7h1+      -0.0036    0.0000   -0.0079    0.0000   -0.0000   -0.0000    0.0032   -0.0000   -0.0000    0.0000
      173 CR     6h2+      -0.0080    0.0000    0.0076   -0.0000    0.0000    0.0000   -0.0035    0.0000    0.0000   -0.0000
      174 CR     7h2+      -0.0037    0.0000    0.0033   -0.0000    0.0000    0.0000   -0.0023    0.0000    0.0000    0.0000
      175 CR     6h3+      -0.0000    0.0003    0.0000   -0.0000   -0.0055   -0.0000    0.0000    0.0022    0.0012   -0.0000
      176 CR     7h3+       0.0000    0.0007    0.0000   -0.0000   -0.0033   -0.0000    0.0000    0.0031    0.0010   -0.0000
      177 CR     6h4+      -0.0039    0.0000   -0.0138    0.0000   -0.0000   -0.0000    0.0076   -0.0000    0.0000    0.0000
      178 CR     7h4+      -0.0019    0.0000   -0.0043    0.0000   -0.0000   -0.0000    0.0050   -0.0000    0.0000    0.0000
      179 CR     6h5+      -0.0102    0.0000    0.0084   -0.0000    0.0000    0.0000   -0.0034    0.0000    0.0000   -0.0000
      180 CR     7h5+      -0.0046    0.0000    0.0034   -0.0000    0.0000    0.0000   -0.0017    0.0000    0.0000    0.0000

          Orbital           21        22        23        24        25        26        27        28    
          Energy           -0.2034   -0.1930   -0.1929   -0.1929   -0.1752   -0.1752   -0.1670   -0.1100
          Occ. No.          0.0000    0.0000    0.0000    0.0000    0.0000    0.0000    0.0000    0.0000

        1 CR     1s        -0.0000   -0.0000   -0.0000   -0.0000   -0.0000    0.0000   -0.0000   -0.0000
        2 CR     2s        -0.0000   -0.0001   -0.0000   -0.0000   -0.0000    0.0000   -0.0000   -0.0001
        3 CR     3s        -0.0000   -0.0040   -0.0000   -0.0000   -0.0000    0.0000    0.0034    0.0150
        4 CR     4s         0.0000    0.0209    0.0000    0.0000    0.0000   -0.0000    0.0156   -0.0435
        5 CR     5s         0.0000    0.0045    0.0000    0.0000    0.0000    0.0000   -0.1021   -0.3150
        6 CR     6s         0.0000    0.0144    0.0000    0.0000    0.0000    0.0000   -0.1183    0.0364
        7 CR     7s         0.0000    0.0100    0.0000    0.0000    0.0000    0.0000   -0.0884    0.6118
        8 CR     8s         0.0000    0.0061    0.0000    0.0000    0.0000    0.0000   -0.0621    0.6865
        9 CR     9s         0.0000    0.0009    0.0000    0.0000    0.0000    0.0000   -0.0094    0.1568
       10 CR    10s         0.0000    0.0001    0.0000    0.0000    0.0000    0.0000   -0.0008    0.0157
       11 CR     2px       -0.0000   -0.0000    0.0003    0.0000   -0.0000    0.0001    0.0000    0.0000
       12 CR     3px       -0.0057   -0.0000    0.0190    0.0000    0.0000   -0.0275    0.0000    0.0000
       13 CR     4px       -0.0141    0.0000   -0.0665   -0.0000    0.0000   -0.0798    0.0000   -0.0000
       14 CR     5px        0.0022   -0.0000    0.0106    0.0000   -0.0000    0.3494   -0.0000    0.0000
       15 CR     6px        0.0141   -0.0000    0.0171    0.0000   -0.0000    0.8358   -0.0000   -0.0000
       16 CR     7px        0.0053   -0.0000    0.0099    0.0000   -0.0000    0.3713   -0.0000   -0.0000
       17 CR     8px        0.0012   -0.0000    0.0049    0.0000   -0.0000    0.1608   -0.0000   -0.0000
       18 CR     9px       -0.0001    0.0000   -0.0003   -0.0000   -0.0000    0.0239   -0.0000   -0.0000
       19 CR    10px       -0.0001    0.0000   -0.0008   -0.0000    0.0000   -0.0043    0.0000   -0.0000
       20 CR    11px       -0.0000    0.0000   -0.0001   -0.0000    0.0000   -0.0015    0.0000   -0.0000
       21 CR     2py        0.0000    0.0000   -0.0000    0.0003    0.0001    0.0000    0.0000   -0.0000
       22 CR     3py        0.0000    0.0000   -0.0000    0.0190   -0.0275   -0.0000   -0.0000   -0.0000
       23 CR     4py        0.0000   -0.0000    0.0000   -0.0665   -0.0798   -0.0000   -0.0000   -0.0000
       24 CR     5py       -0.0000    0.0000   -0.0000    0.0106    0.3494    0.0000    0.0000    0.0000
       25 CR     6py       -0.0000    0.0000   -0.0000    0.0171    0.8358    0.0000    0.0000   -0.0000
       26 CR     7py       -0.0000    0.0000   -0.0000    0.0099    0.3713    0.0000    0.0000   -0.0000
       27 CR     8py       -0.0000    0.0000   -0.0000    0.0049    0.1608    0.0000    0.0000   -0.0000
       28 CR     9py        0.0000    0.0000    0.0000   -0.0003    0.0239    0.0000    0.0000   -0.0000
       29 CR    10py        0.0000   -0.0000    0.0000   -0.0008   -0.0043   -0.0000   -0.0000   -0.0000
       30 CR    11py        0.0000   -0.0000    0.0000   -0.0001   -0.0015   -0.0000   -0.0000   -0.0000
       31 CR     2pz        0.0000   -0.0001   -0.0000   -0.0000   -0.0000    0.0000    0.0002   -0.0000
       32 CR     3pz       -0.0000   -0.0160   -0.0000   -0.0000    0.0000   -0.0000   -0.0198    0.0027
       33 CR     4pz       -0.0000   -0.0397   -0.0000   -0.0000    0.0000   -0.0000   -0.1255   -0.0034
       34 CR     5pz        0.0000    0.0140    0.0000    0.0000   -0.0000    0.0000    0.2972   -0.0420
       35 CR     6pz        0.0000    0.0619    0.0000    0.0000   -0.0000    0.0000    0.8044    0.0301
       36 CR     7pz        0.0000    0.0258    0.0000    0.0000   -0.0000    0.0000    0.4038    0.0902
       37 CR     8pz        0.0000    0.0084    0.0000    0.0000   -0.0000    0.0000    0.2031    0.0957
       38 CR     9pz        0.0000    0.0005    0.0000    0.0000   -0.0000    0.0000    0.0439    0.0454
       39 CR    10pz       -0.0000   -0.0005   -0.0000   -0.0000    0.0000   -0.0000    0.0012    0.0127
       40 CR    11pz       -0.0000   -0.0001   -0.0000   -0.0000    0.0000   -0.0000   -0.0009    0.0015
       41 CR     3d2-       0.0000   -0.0000    0.0000   -0.0360    0.0248    0.0000    0.0000    0.0000
       42 CR     4d2-       0.0000    0.0000   -0.0000    0.2016   -0.0134   -0.0000    0.0000   -0.0000
       43 CR     5d2-       0.0000    0.0000   -0.0000    0.2313    0.0078    0.0000    0.0000   -0.0000
       44 CR     6d2-       0.0000    0.0000   -0.0000    0.1795    0.0071    0.0000   -0.0000   -0.0000
       45 CR     7d2-       0.0000    0.0000   -0.0000    0.1741    0.0077    0.0000   -0.0000   -0.0000
       46 CR     8d2-       0.0000    0.0000   -0.0000    0.0569    0.0035    0.0000   -0.0000   -0.0000
       47 CR     9d2-       0.0000    0.0000   -0.0000    0.0050    0.0010    0.0000   -0.0000   -0.0000
       48 CR    10d2-      -0.0000   -0.0000    0.0000   -0.0002    0.0002    0.0000   -0.0000   -0.0000
       49 CR     3d1-      -0.0000   -0.0000    0.0000   -0.0517    0.0440    0.0000    0.0000    0.0000
       50 CR     4d1-      -0.0000    0.0000   -0.0000    0.4644   -0.0616   -0.0000   -0.0000   -0.0000
       51 CR     5d1-      -0.0000    0.0000   -0.0000    0.5285   -0.0129   -0.0000    0.0000   -0.0000
       52 CR     6d1-      -0.0000    0.0000   -0.0000    0.4033    0.0041    0.0000    0.0000   -0.0000
       53 CR     7d1-      -0.0000    0.0000   -0.0000    0.3913    0.0141    0.0000    0.0000   -0.0000
       54 CR     8d1-      -0.0000    0.0000   -0.0000    0.1284    0.0136    0.0000    0.0000   -0.0000
       55 CR     9d1-      -0.0000    0.0000   -0.0000    0.0113    0.0056    0.0000    0.0000   -0.0000
       56 CR    10d1-       0.0000   -0.0000    0.0000   -0.0006    0.0012    0.0000    0.0000   -0.0000
       57 CR     3d0       -0.0000   -0.0541   -0.0000   -0.0000   -0.0000    0.0000    0.0027    0.0296
       58 CR     4d0        0.0000    0.5126    0.0000    0.0000    0.0000   -0.0000   -0.0436   -0.0218
       59 CR     5d0        0.0000    0.5761    0.0000    0.0000    0.0000   -0.0000   -0.0464    0.0024
       60 CR     6d0        0.0000    0.4379    0.0000    0.0000    0.0000   -0.0000   -0.0271    0.0014
       61 CR     7d0        0.0000    0.4250    0.0000    0.0000    0.0000   -0.0000   -0.0180    0.0001
       62 CR     8d0        0.0000    0.1395    0.0000    0.0000    0.0000   -0.0000    0.0010   -0.0009
       63 CR     9d0        0.0000    0.0122    0.0000    0.0000    0.0000   -0.0000    0.0030   -0.0002
       64 CR    10d0       -0.0000   -0.0007   -0.0000   -0.0000   -0.0000    0.0000    0.0008   -0.0000
       65 CR     3d1+       0.0298    0.0000   -0.0517   -0.0000   -0.0000    0.0440   -0.0000   -0.0000
       66 CR     4d1+       0.2234   -0.0000    0.4644    0.0000    0.0000   -0.0616    0.0000   -0.0000
       67 CR     5d1+       0.2396   -0.0000    0.5285    0.0000    0.0000   -0.0129    0.0000    0.0000
       68 CR     6d1+       0.1664   -0.0000    0.4033    0.0000   -0.0000    0.0041    0.0000    0.0000
       69 CR     7d1+       0.1548   -0.0000    0.3913    0.0000   -0.0000    0.0141    0.0000    0.0000
       70 CR     8d1+       0.0450   -0.0000    0.1284    0.0000   -0.0000    0.0136    0.0000    0.0000
       71 CR     9d1+       0.0013   -0.0000    0.0113    0.0000   -0.0000    0.0056    0.0000    0.0000
       72 CR    10d1+      -0.0011    0.0000   -0.0006   -0.0000   -0.0000    0.0012   -0.0000    0.0000
       73 CR     3d2+       0.0162   -0.0000    0.0360    0.0000    0.0000   -0.0248    0.0000    0.0000
       74 CR     4d2+       0.5098    0.0000   -0.2016   -0.0000   -0.0000    0.0134   -0.0000   -0.0000
       75 CR     5d2+       0.5406    0.0000   -0.2313   -0.0000    0.0000   -0.0078    0.0000   -0.0000
       76 CR     6d2+       0.3815    0.0000   -0.1795   -0.0000    0.0000   -0.0071    0.0000   -0.0000
       77 CR     7d2+       0.3544    0.0000   -0.1741   -0.0000    0.0000   -0.0077    0.0000   -0.0000
       78 CR     8d2+       0.1024    0.0000   -0.0569   -0.0000    0.0000   -0.0035    0.0000   -0.0000
       79 CR     9d2+       0.0026    0.0000   -0.0050   -0.0000    0.0000   -0.0010    0.0000   -0.0000
       80 CR    10d2+      -0.0024   -0.0000    0.0002    0.0000    0.0000   -0.0002    0.0000   -0.0000
       81 CR     4f3-      -0.0000   -0.0000    0.0000   -0.0000    0.0000    0.0000    0.0000   -0.0000
       82 CR     5f3-      -0.0000   -0.0000   -0.0000    0.0000    0.0000    0.0000    0.0000   -0.0000
       83 CR     6f3-      -0.0000   -0.0000   -0.0000    0.0000    0.0000    0.0000   -0.0000   -0.0000
       84 CR     7f3-      -0.0000   -0.0000    0.0000   -0.0000    0.0000    0.0000   -0.0000   -0.0000
       85 CR     8f3-      -0.0000   -0.0000    0.0000   -0.0000   -0.0000   -0.0000   -0.0000   -0.0000
       86 CR     9f3-      -0.0000   -0.0000    0.0000   -0.0000   -0.0000   -0.0000   -0.0000   -0.0000
       87 CR     4f2-       0.0000   -0.0000    0.0000   -0.0125    0.0137    0.0000    0.0000    0.0000
       88 CR     5f2-       0.0000    0.0000   -0.0000    0.0111    0.0114    0.0000    0.0000    0.0000
       89 CR     6f2-       0.0000    0.0000   -0.0000    0.0206    0.0046    0.0000    0.0000    0.0000
       90 CR     7f2-       0.0000    0.0000   -0.0000    0.0137    0.0031    0.0000    0.0000    0.0000
       91 CR     8f2-       0.0000    0.0000   -0.0000    0.0078    0.0016    0.0000    0.0000    0.0000
       92 CR     9f2-       0.0000    0.0000   -0.0000    0.0060    0.0011    0.0000    0.0000    0.0000
       93 CR     4f1-      -0.0000    0.0000   -0.0000    0.0061    0.0072    0.0000    0.0000    0.0000
       94 CR     5f1-      -0.0000    0.0000   -0.0000    0.0225    0.0081    0.0000    0.0000    0.0000
       95 CR     6f1-      -0.0000    0.0000   -0.0000    0.0293    0.0029    0.0000    0.0000    0.0000
       96 CR     7f1-      -0.0000    0.0000   -0.0000    0.0252   -0.0005   -0.0000    0.0000    0.0000
       97 CR     8f1-      -0.0000    0.0000   -0.0000    0.0148   -0.0012   -0.0000    0.0000    0.0000
       98 CR     9f1-      -0.0000    0.0000   -0.0000    0.0109   -0.0012   -0.0000    0.0000    0.0000
       99 CR     4f0        0.0000    0.0176    0.0000    0.0000    0.0000    0.0000    0.0033   -0.0303
      100 CR     5f0        0.0000    0.0245    0.0000    0.0000    0.0000    0.0000    0.0059   -0.0338
      101 CR     6f0        0.0000    0.0279    0.0000    0.0000    0.0000   -0.0000    0.0026   -0.0159
      102 CR     7f0        0.0000    0.0271    0.0000    0.0000    0.0000   -0.0000   -0.0010   -0.0088
      103 CR     8f0        0.0000    0.0158    0.0000    0.0000    0.0000   -0.0000   -0.0017   -0.0056
      104 CR     9f0        0.0000    0.0111    0.0000    0.0000    0.0000   -0.0000   -0.0017   -0.0047
      105 CR     4f1+       0.0046   -0.0000    0.0061    0.0000   -0.0000    0.0072    0.0000    0.0000
      106 CR     5f1+       0.0143   -0.0000    0.0225    0.0000   -0.0000    0.0081    0.0000    0.0000
      107 CR     6f1+       0.0169   -0.0000    0.0293    0.0000   -0.0000    0.0029    0.0000    0.0000
      108 CR     7f1+       0.0134   -0.0000    0.0252    0.0000    0.0000   -0.0005    0.0000    0.0000
      109 CR     8f1+       0.0073   -0.0000    0.0148    0.0000    0.0000   -0.0012    0.0000    0.0000
      110 CR     9f1+       0.0050   -0.0000    0.0109    0.0000    0.0000   -0.0012    0.0000    0.0000
      111 CR     4f2+       0.0017   -0.0000    0.0125    0.0000    0.0000   -0.0137    0.0000    0.0000
      112 CR     5f2+       0.0260    0.0000   -0.0111   -0.0000    0.0000   -0.0114    0.0000    0.0000
      113 CR     6f2+       0.0339    0.0000   -0.0206   -0.0000    0.0000   -0.0046    0.0000    0.0000
      114 CR     7f2+       0.0257    0.0000   -0.0137   -0.0000    0.0000   -0.0031    0.0000    0.0000
      115 CR     8f2+       0.0139    0.0000   -0.0078   -0.0000    0.0000   -0.0016    0.0000    0.0000
      116 CR     9f2+       0.0098    0.0000   -0.0060   -0.0000    0.0000   -0.0011   -0.0000    0.0000
      117 CR     4f3+      -0.0000   -0.0074   -0.0000   -0.0000   -0.0000    0.0000   -0.0094   -0.0163
      118 CR     5f3+      -0.0000    0.0015    0.0000    0.0000   -0.0000    0.0000   -0.0129   -0.0202
      119 CR     6f3+      -0.0000    0.0060    0.0000    0.0000   -0.0000    0.0000   -0.0074   -0.0105
      120 CR     7f3+      -0.0000    0.0037    0.0000    0.0000   -0.0000    0.0000   -0.0037   -0.0059
      121 CR     8f3+      -0.0000    0.0018    0.0000    0.0000    0.0000   -0.0000   -0.0019   -0.0038
      122 CR     9f3+      -0.0000    0.0012    0.0000    0.0000    0.0000   -0.0000   -0.0013   -0.0032
      123 CR     5g4-      -0.0000   -0.0000    0.0000   -0.0030    0.0047    0.0000    0.0000    0.0000
      124 CR     6g4-      -0.0000   -0.0000   -0.0000    0.0002    0.0060    0.0000    0.0000    0.0000
      125 CR     7g4-      -0.0000    0.0000   -0.0000    0.0018    0.0028    0.0000    0.0000    0.0000
      126 CR     8g4-      -0.0000    0.0000   -0.0000    0.0005    0.0006    0.0000    0.0000   -0.0000
      127 CR     5g3-       0.0000   -0.0000   -0.0000    0.0000   -0.0000   -0.0000    0.0000   -0.0000
      128 CR     6g3-       0.0000   -0.0000    0.0000   -0.0000   -0.0000   -0.0000   -0.0000   -0.0000
      129 CR     7g3-       0.0000   -0.0000    0.0000   -0.0000   -0.0000   -0.0000    0.0000   -0.0000
      130 CR     8g3-       0.0000   -0.0000    0.0000   -0.0000    0.0000    0.0000    0.0000    0.0000
      131 CR     5g2-       0.0000    0.0000   -0.0000    0.0029   -0.0009   -0.0000   -0.0000   -0.0000
      132 CR     6g2-      -0.0000    0.0000   -0.0000    0.0003    0.0000    0.0000   -0.0000   -0.0000
      133 CR     7g2-      -0.0000   -0.0000    0.0000   -0.0014    0.0007    0.0000    0.0000    0.0000
      134 CR     8g2-      -0.0000   -0.0000    0.0000   -0.0006    0.0004    0.0000    0.0000   -0.0000
      135 CR     5g1-      -0.0000   -0.0000    0.0000   -0.0005    0.0044    0.0000    0.0000    0.0000
      136 CR     6g1-       0.0000   -0.0000    0.0000   -0.0004    0.0071    0.0000    0.0000    0.0000
      137 CR     7g1-       0.0000   -0.0000    0.0000   -0.0006    0.0038    0.0000    0.0000    0.0000
      138 CR     8g1-       0.0000   -0.0000    0.0000   -0.0012    0.0011    0.0000    0.0000   -0.0000
      139 CR     5g0        0.0000    0.0066    0.0000    0.0000   -0.0000    0.0000    0.0057   -0.0025
      140 CR     6g0       -0.0000    0.0014    0.0000    0.0000   -0.0000    0.0000    0.0099   -0.0024
      141 CR     7g0       -0.0000   -0.0027   -0.0000   -0.0000   -0.0000    0.0000    0.0057   -0.0007
      142 CR     8g0       -0.0000   -0.0016   -0.0000   -0.0000   -0.0000    0.0000    0.0014    0.0000
      143 CR     5g1+       0.0015    0.0000   -0.0005   -0.0000   -0.0000    0.0044   -0.0000   -0.0000
      144 CR     6g1+      -0.0007    0.0000   -0.0004   -0.0000   -0.0000    0.0071   -0.0000   -0.0000
      145 CR     7g1+      -0.0017    0.0000   -0.0006   -0.0000   -0.0000    0.0038   -0.0000    0.0000
      146 CR     8g1+      -0.0010    0.0000   -0.0012   -0.0000   -0.0000    0.0011   -0.0000    0.0000
      147 CR     5g2+       0.0007    0.0000   -0.0029   -0.0000   -0.0000    0.0009   -0.0000   -0.0000
      148 CR     6g2+      -0.0007    0.0000   -0.0003   -0.0000    0.0000   -0.0000   -0.0000   -0.0000
      149 CR     7g2+      -0.0013   -0.0000    0.0014    0.0000    0.0000   -0.0007   -0.0000    0.0000
      150 CR     8g2+      -0.0009   -0.0000    0.0006    0.0000    0.0000   -0.0004   -0.0000    0.0000
      151 CR     5g3+       0.0000    0.0022    0.0000    0.0000    0.0000   -0.0000    0.0040    0.0036
      152 CR     6g3+      -0.0000    0.0015    0.0000    0.0000    0.0000   -0.0000    0.0061    0.0040
      153 CR     7g3+      -0.0000    0.0001   -0.0000   -0.0000    0.0000   -0.0000    0.0029    0.0004
      154 CR     8g3+      -0.0000    0.0000   -0.0000   -0.0000   -0.0000    0.0000    0.0003   -0.0011
      155 CR     5g4+       0.0006    0.0000   -0.0030   -0.0000   -0.0000    0.0047   -0.0000    0.0000
      156 CR     6g4+       0.0008   -0.0000    0.0002    0.0000   -0.0000    0.0060   -0.0000    0.0000
      157 CR     7g4+       0.0004   -0.0000    0.0018    0.0000   -0.0000    0.0028    0.0000    0.0000
      158 CR     8g4+       0.0003   -0.0000    0.0005    0.0000   -0.0000    0.0006    0.0000    0.0000
      159 CR     6h5-       0.0000    0.0000   -0.0000    0.0018   -0.0009   -0.0000   -0.0000   -0.0000
      160 CR     7h5-      -0.0000    0.0000   -0.0000    0.0003   -0.0005   -0.0000   -0.0000   -0.0000
      161 CR     6h4-       0.0000    0.0000   -0.0000    0.0033   -0.0026   -0.0000   -0.0000   -0.0000
      162 CR     7h4-       0.0000    0.0000   -0.0000    0.0003   -0.0023   -0.0000   -0.0000   -0.0000
      163 CR     6h3-      -0.0000   -0.0000    0.0000   -0.0000    0.0000   -0.0000    0.0000   -0.0000
      164 CR     7h3-       0.0000    0.0000    0.0000   -0.0000    0.0000    0.0000   -0.0000    0.0000
      165 CR     6h2-       0.0000    0.0000   -0.0000    0.0016   -0.0011   -0.0000   -0.0000   -0.0000
      166 CR     7h2-      -0.0000    0.0000   -0.0000    0.0002   -0.0009   -0.0000   -0.0000   -0.0000
      167 CR     6h1-       0.0000    0.0000   -0.0000    0.0042   -0.0018   -0.0000   -0.0000   -0.0000
      168 CR     7h1-       0.0000    0.0000   -0.0000    0.0005   -0.0007   -0.0000    0.0000   -0.0000
      169 CR     6h0        0.0000    0.0055    0.0000    0.0000    0.0000   -0.0000    0.0002   -0.0017
      170 CR     7h0        0.0000    0.0008    0.0000    0.0000    0.0000   -0.0000    0.0008   -0.0010
      171 CR     6h1+      -0.0001   -0.0000    0.0042    0.0000    0.0000   -0.0018    0.0000    0.0000
      172 CR     7h1+      -0.0005   -0.0000    0.0005    0.0000    0.0000   -0.0007    0.0000    0.0000
      173 CR     6h2+       0.0013    0.0000   -0.0016   -0.0000   -0.0000    0.0011   -0.0000   -0.0000
      174 CR     7h2+      -0.0001    0.0000   -0.0002   -0.0000   -0.0000    0.0009   -0.0000   -0.0000
      175 CR     6h3+       0.0000    0.0008    0.0000    0.0000    0.0000   -0.0000   -0.0015   -0.0012
      176 CR     7h3+       0.0000   -0.0002   -0.0000   -0.0000    0.0000    0.0000   -0.0019   -0.0010
      177 CR     6h4+      -0.0003   -0.0000    0.0033    0.0000    0.0000   -0.0026    0.0000   -0.0000
      178 CR     7h4+      -0.0004   -0.0000    0.0003    0.0000    0.0000   -0.0023    0.0000   -0.0000
      179 CR     6h5+       0.0016    0.0000   -0.0018   -0.0000   -0.0000    0.0009   -0.0000   -0.0000
      180 CR     7h5+      -0.0002    0.0000   -0.0003   -0.0000   -0.0000    0.0005   -0.0000   -0.0000
--


++    Molecular charges:
      ------------------

[...]
         3   17       8.18913606E-03  2.24112192E+07  1.21467494E-04  1.76614891E-05  2.24112192E+07
         4    6       4.60388888E-05  2.05455071E+04  1.11353451E-07  7.04544364E-08  2.05455071E+04
         4    8       3.07363969E-04  2.75928294E+05  8.22012547E-06  6.41517744E+02  2.76569812E+05
         4   10       3.06660347E-04  8.22065212E-06  2.75936844E+05  4.12621826E-10  2.75936844E+05
         4   12       4.56405000E-04  4.17741105E+05  2.26371886E-06  6.91283042E-09  4.17741105E+05
         4   14       2.32537166E-02  1.24896641E-04  5.40722557E+07  1.88522122E-04  5.40722557E+07
         4   16       3.14956651E-02  5.40721084E+07  1.24896540E-04  1.91653029E+07  7.32374113E+07
         4   18       8.18913606E-03  2.24112192E+07  1.21467494E-04  1.76614891E-05  2.24112192E+07
         5    7       7.45362228E-03  5.86679407E+05  5.74730454E-06  3.17878539E-05  5.86679407E+05
         5    9       7.45363160E-03  5.74732893E-06  5.86681285E+05  7.20115358E-15  5.86681285E+05
         5   11       3.45111923E-03  7.13751675E-05  2.63138823E-14  2.87594449E+05  2.87594449E+05
         5   13       3.14658487E-01  1.50930936E-04  2.31029879E+08  4.66022899E-19  2.31029879E+08
         5   15       3.14658503E-01  2.31029975E+08  1.50931022E-04  1.03757147E-05  2.31029975E+08
         5   17       1.94421523E-01  2.27225848E-08  1.08759649E-15  1.89118494E+08  1.89118494E+08
         6    8       7.45362228E-03  5.86679407E+05  5.74730454E-06  3.17878539E-05  5.86679407E+05
         6   10       7.45363160E-03  5.74732893E-06  5.86681285E+05  7.20115358E-15  5.86681285E+05
         6   12       3.45111923E-03  7.13751675E-05  2.63138823E-14  2.87594449E+05  2.87594449E+05
         6   14       3.14658487E-01  1.50930936E-04  2.31029879E+08  4.66022899E-19  2.31029879E+08
         6   16       3.14658503E-01  2.31029975E+08  1.50931022E-04  1.03757147E-05  2.31029975E+08
         6   18       1.94421523E-01  2.27225848E-08  1.08759649E-15  1.89118494E+08  1.89118494E+08
         7   11       3.86208950E-05  2.54742071E+00  2.49592407E-11  2.06285465E-13  2.54742071E+00
         7   13       5.01129185E-03  8.97164627E-06  1.66444345E+06  7.84569593E-05  1.66444345E+06
         7   15       2.02425345E-02  1.66459405E+06  8.97196166E-06  5.05873660E+06  6.72333066E+06
         7   17       1.33420388E-02  6.64475756E+06  6.50940831E-05  8.33750550E-03  6.64475756E+06
         8   12       3.86208950E-05  2.54742071E+00  2.49592407E-11  2.06285465E-13  2.54742071E+00
         8   14       5.01129185E-03  8.97164627E-06  1.66444345E+06  7.84569593E-05  1.66444345E+06
         8   16       2.02425345E-02  1.66459405E+06  8.97196166E-06  5.05873660E+06  6.72333066E+06
         8   18       1.33420388E-02  6.64475756E+06  6.50940831E-05  8.33750550E-03  6.64475756E+06
         9   11       3.86210629E-05  2.49499264E-11  2.54726001E+00  1.65030257E-21  2.54726001E+00
         9   13       2.02423030E-02  1.66451906E+06  8.97418795E-06  5.05872470E+06  6.72324376E+06
         9   15       5.01153005E-03  8.96934392E-06  1.66452188E+06  7.84568986E-05  1.66452188E+06
         9   17       1.33420313E-02  6.50940227E-05  6.64474871E+06  2.04369205E-12  6.64474871E+06
        10   12       3.86210629E-05  2.49499264E-11  2.54726001E+00  1.65030257E-21  2.54726001E+00
        10   14       2.02423030E-02  1.66451906E+06  8.97418795E-06  5.05872470E+06  6.72324376E+06
        10   16       5.01153005E-03  8.96934392E-06  1.66452188E+06  7.84568986E-05  1.66452188E+06
        10   18       1.33420313E-02  6.50940227E-05  6.64474871E+06  2.04369205E-12  6.64474871E+06
        11   13       1.91388403E-02  4.03754733E-06  6.17884856E+06  2.17068831E-13  6.17884856E+06
        11   15       1.91384408E-02  6.17872297E+06  4.03560517E-06  5.51308450E-04  6.17872297E+06
        11   17       1.47038197E-01  6.54478833E-04  2.56644916E-13  7.15538780E+07  7.15538780E+07
        12   14       1.91388403E-02  4.03754733E-06  6.17884856E+06  2.17068831E-13  6.17884856E+06
        12   16       1.91384408E-02  6.17872297E+06  4.03560517E-06  5.51308450E-04  6.17872297E+06
        12   18       1.47038197E-01  6.54478833E-04  2.56644916E-13  7.15538780E+07  7.15538780E+07
        13   17       2.42270402E-03  2.65016198E-08  4.05659418E+04  1.08751371E-18  4.05659418E+04
        14   18       2.42270402E-03  2.65016198E-08  4.05659418E+04  1.08751371E-18  4.05659418E+04
        15   17       2.42270083E-03  4.05657907E+04  2.65015779E-08  8.81102944E-11  4.05657907E+04
        16   18       2.42270083E-03  4.05657907E+04  2.65015779E-08  8.81102944E-11  4.05657907E+04
     -----------------------------------------------------------------------------------------------
--

++ Velocity transition strengths (SO states):
   ------------------------------------------
    for osc. strength at least    1.0000000000000001E-005

      From   To        Osc. strength     Einstein coefficients Ax, Ay, Az (sec-1)    Total A (sec-1)
     -----------------------------------------------------------------------------------------------
         1    5       6.10308867E-05  1.47617619E-07  2.72360067E+04  9.09054688E-17  2.72360067E+04
         1    7       1.89647131E-04  5.08336946E-06  1.70647431E+05  4.93311986E-09  1.70647431E+05
         1    9       1.98168692E-04  1.70643737E+05  5.08314052E-06  7.67162924E+03  1.78315366E+05
         1   11       1.90548888E-04  9.45480301E-07  1.74407394E+05  5.92301843E-16  1.74407394E+05
         1   13       2.50894280E-02  4.32712337E+07  9.99492259E-05  1.50698478E+07  5.83410815E+07
         1   15       1.86086806E-02  9.99480724E-05  4.32712443E+07  1.48236401E-04  4.32712443E+07
         1   17       6.73038779E-03  9.98299605E-05  1.84191286E+07  1.71763112E-16  1.84191286E+07
         2    6       6.10308867E-05  1.47617619E-07  2.72360067E+04  9.09054688E-17  2.72360067E+04
         2    8       1.89647131E-04  5.08336946E-06  1.70647431E+05  4.93311986E-09  1.70647431E+05
         2   10       1.98168692E-04  1.70643737E+05  5.08314052E-06  7.67162924E+03  1.78315366E+05
         2   12       1.90548888E-04  9.45480301E-07  1.74407394E+05  5.92301843E-16  1.74407394E+05
         2   14       2.50894280E-02  4.32712337E+07  9.99492259E-05  1.50698478E+07  5.83410815E+07
         2   16       1.86086806E-02  9.99480724E-05  4.32712443E+07  1.48236401E-04  4.32712443E+07
         2   18       6.73038779E-03  9.98299605E-05  1.84191286E+07  1.71763112E-16  1.84191286E+07
         3    5       6.10303438E-05  2.72357513E+04  1.47612674E-07  5.11462496E-08  2.72357513E+04
         3    7       1.98164464E-04  1.70639816E+05  5.08348304E-06  7.67158217E+03  1.78311398E+05
         3    9       1.89643910E-04  5.08376944E-06  1.70644573E+05  4.93299016E-09  1.70644573E+05
         3   11       1.90556765E-04  1.74414545E+05  9.45110864E-07  2.81438323E-07  1.74414545E+05
         3   13       1.86087194E-02  9.99484924E-05  4.32713167E+07  1.48236440E-04  4.32713167E+07
         3   15       2.50894020E-02  4.32711906E+07  9.99484187E-05  1.50698299E+07  5.83410204E+07
         3   17       6.73037422E-03  1.84190878E+07  9.98305257E-05  1.70357719E-05  1.84190878E+07
         4    6       6.10303438E-05  2.72357513E+04  1.47612674E-07  5.11462496E-08  2.72357513E+04
         4    8       1.98164464E-04  1.70639816E+05  5.08348304E-06  7.67158217E+03  1.78311398E+05
         4   10       1.89643910E-04  5.08376944E-06  1.70644573E+05  4.93299016E-09  1.70644573E+05
         4   12       1.90556765E-04  1.74414545E+05  9.45110864E-07  2.81438323E-07  1.74414545E+05
         4   14       1.86087194E-02  9.99484924E-05  4.32713167E+07  1.48236440E-04  4.32713167E+07
         4   16       2.50894020E-02  4.32711906E+07  9.99484187E-05  1.50698299E+07  5.83410204E+07
         4   18       6.73037422E-03  1.84190878E+07  9.98305257E-05  1.70357719E-05  1.84190878E+07
         5    7       7.84353532E-03  6.17371859E+05  6.04799572E-06  3.71407716E-05  6.17371860E+05
         5    9       7.84354432E-03  6.04803031E-06  6.17373773E+05  1.00806208E-14  6.17373773E+05
         5   11       3.99639354E-03  7.36208705E-05  2.49252874E-14  3.33035320E+05  3.33035320E+05
         5   13       2.99502007E-01  1.43661602E-04  2.19902389E+08  1.05434632E-16  2.19902389E+08
         5   15       2.99502024E-01  2.19902482E+08  1.43661432E-04  8.94228233E-06  2.19902482E+08
         5   17       1.96580886E-01  8.09527361E-10  5.39820245E-16  1.91219624E+08  1.91219624E+08
         6    8       7.84353532E-03  6.17371859E+05  6.04799572E-06  3.71407716E-05  6.17371860E+05
         6   10       7.84354432E-03  6.04803031E-06  6.17373773E+05  1.00806208E-14  6.17373773E+05
         6   12       3.99639354E-03  7.36208705E-05  2.49252874E-14  3.33035320E+05  3.33035320E+05
         6   14       2.99502007E-01  1.43661602E-04  2.19902389E+08  1.05434632E-16  2.19902389E+08
         6   16       2.99502024E-01  2.19902482E+08  1.43661432E-04  8.94228233E-06  2.19902482E+08
         6   18       1.96580886E-01  8.09527361E-10  5.39820245E-16  1.91219624E+08  1.91219624E+08
         7   11       1.22176980E-02  8.05877882E+02  7.89461097E-09  2.21737016E-10  8.05877882E+02
         7   13       3.32297671E-03  5.94917101E-06  1.10369266E+06  5.26695928E-05  1.10369266E+06
         7   15       1.35480687E-02  1.10382335E+06  5.94941374E-06  3.39603129E+06  4.49985464E+06
         7   17       9.78517204E-03  4.87334230E+06  4.77406897E-05  7.40833807E-03  4.87334231E+06
         8   12       1.22176980E-02  8.05877882E+02  7.89461097E-09  2.21737016E-10  8.05877882E+02
         8   14       3.32297671E-03  5.94917101E-06  1.10369266E+06  5.26695928E-05  1.10369266E+06
         8   16       1.35480687E-02  1.10382335E+06  5.94941374E-06  3.39603129E+06  4.49985464E+06
         8   18       9.78517204E-03  4.87334230E+06  4.77406897E-05  7.40833807E-03  4.87334231E+06
         9   11       1.22181202E-02  7.89442214E-09  8.05851390E+02  9.93185813E-19  8.05851390E+02
         9   13       1.35478658E-02  1.10375806E+06  5.95131832E-06  3.39602247E+06  4.49978053E+06
         9   15       3.32318150E-03  5.94720580E-06  1.10376023E+06  5.26696561E-05  1.10376023E+06
         9   17       9.78516659E-03  4.77407689E-05  4.87333582E+06  1.73836396E-12  4.87333582E+06
        10   12       1.22181202E-02  7.89442214E-09  8.05851390E+02  9.93185813E-19  8.05851390E+02
        10   14       1.35478658E-02  1.10375806E+06  5.95131832E-06  3.39602247E+06  4.49978053E+06
        10   16       3.32318150E-03  5.94720580E-06  1.10376023E+06  5.26696561E-05  1.10376023E+06
        10   18       9.78516659E-03  4.77407689E-05  4.87333582E+06  1.73836396E-12  4.87333582E+06
        11   13       2.21717939E-02  4.67713601E-06  7.15804256E+06  1.55684019E-13  7.15804256E+06
        11   15       2.21714442E-02  7.15793358E+06  4.67542341E-06  3.71766949E-04  7.15793358E+06
        11   17       1.29939749E-01  4.76335305E-04  1.93070592E-13  6.32334012E+07  6.32334012E+07
        12   14       2.21717939E-02  4.67713601E-06  7.15804256E+06  1.55684019E-13  7.15804256E+06
        12   16       2.21714442E-02  7.15793358E+06  4.67542341E-06  3.71766949E-04  7.15793358E+06
        12   18       1.29939749E-01  4.76335305E-04  1.93070592E-13  6.32334012E+07  6.32334012E+07
        13   17       1.27414283E-03  1.39376412E-08  2.13344194E+04  1.49545028E-16  2.13344194E+04
        14   18       1.27414283E-03  1.39376412E-08  2.13344194E+04  1.49545028E-16  2.13344194E+04
        15   17       1.27414038E-03  2.13343270E+04  1.39380327E-08  7.12486122E-10  2.13343270E+04
        16   18       1.27414038E-03  2.13343270E+04  1.39380327E-08  7.12486122E-10  2.13343270E+04
     -----------------------------------------------------------------------------------------------
--

++ Length and velocity gauge comparison (SO states):

 --------------------------------------------------
 A comparison between the dipole oscillator strengths in 
 length and velocity gauge will be performed

 All dipole oscillator differences above the tolerance of   0.10000000000000001       will be printed 

 Due to basis set deficiency these oscillator may be problematic 

 The tolerance is defined as ABS(1-O_l/O_v) 
 O_l : dipole oscillator strength in length gauge
 O_p : dipole oscillator strength in velocity gauge
 --------------------------------------------------

  Problematic transitions have been found

      From   To       Difference (%) Osc. st. (len.) Osc. st. (vel.)
     ---------------------------------------------------------------
         1    5            24.563782  4.60393930E-05  6.10308867E-05
         1    7            61.704155  3.06667292E-04  1.89647131E-04
         1    9            55.106241  3.07372010E-04  1.98168692E-04
         1   11           139.513163  4.56389670E-04  1.90548888E-04
         1   13            25.533734  3.14956960E-02  2.50894280E-02
         1   15            24.961409  2.32536695E-02  1.86086806E-02
         1   17            21.674306  8.18915261E-03  6.73038779E-03
         2    6            24.563782  4.60393930E-05  6.10308867E-05
         2    8            61.704155  3.06667292E-04  1.89647131E-04
         2   10            55.106241  3.07372010E-04  1.98168692E-04
         2   12           139.513163  4.56389670E-04  1.90548888E-04
         2   14            25.533734  3.14956960E-02  2.50894280E-02
         2   16            24.961409  2.32536695E-02  1.86086806E-02
         2   18            21.674306  8.18915261E-03  6.73038779E-03
         3    5            24.563937  4.60388888E-05  6.10303438E-05
         3    7            55.105493  3.07363969E-04  1.98164464E-04
         3    9            61.703240  3.06660347E-04  1.89643910E-04
         3   11           139.511308  4.56405000E-04  1.90556765E-04
         3   13            24.961401  2.32537166E-02  1.86087194E-02
         3   15            25.533742  3.14956651E-02  2.50894020E-02
         3   17            21.674305  8.18913606E-03  6.73037422E-03
         4    6            24.563937  4.60388888E-05  6.10303438E-05
         4    8            55.105493  3.07363969E-04  1.98164464E-04
         4   10            61.703240  3.06660347E-04  1.89643910E-04
         4   12           139.511308  4.56405000E-04  1.90556765E-04
         4   14            24.961401  2.32537166E-02  1.86087194E-02
         4   16            25.533742  3.14956651E-02  2.50894020E-02
         4   18            21.674305  8.18913606E-03  6.73037422E-03
         5   11            13.644160  3.45111923E-03  3.99639354E-03
         6   12            13.644160  3.45111923E-03  3.99639354E-03
         7   11            99.683894  3.86208950E-05  1.22176980E-02
         7   13            50.807312  5.01129185E-03  3.32297671E-03
         7   15            49.412694  2.02425345E-02  1.35480687E-02
         7   17            36.349557  1.33420388E-02  9.78517204E-03
         8   12            99.683894  3.86208950E-05  1.22176980E-02
         8   14            50.807312  5.01129185E-03  3.32297671E-03
         8   16            49.412694  2.02425345E-02  1.35480687E-02
         8   18            36.349557  1.33420388E-02  9.78517204E-03
         9   11            99.683903  3.86210629E-05  1.22181202E-02
         9   13            49.413223  2.02423030E-02  1.35478658E-02
         9   15            50.805186  5.01153005E-03  3.32318150E-03
         9   17            36.349557  1.33420313E-02  9.78516659E-03
        10   12            99.683903  3.86210629E-05  1.22181202E-02
        10   14            49.413223  2.02423030E-02  1.35478658E-02
        10   16            50.805186  5.01153005E-03  3.32318150E-03
        10   18            36.349557  1.33420313E-02  9.78516659E-03
        11   13            13.679333  1.91388403E-02  2.21717939E-02
        11   15            13.679774  1.91384408E-02  2.21714442E-02
        11   17            13.158751  1.47038197E-01  1.29939749E-01
        12   14            13.679333  1.91388403E-02  2.21717939E-02
        12   16            13.679774  1.91384408E-02  2.21714442E-02
        12   18            13.158751  1.47038197E-01  1.29939749E-01
        13   17            90.143833  2.42270402E-03  1.27414283E-03
        14   18            90.143833  2.42270402E-03  1.27414283E-03
        15   17            90.143949  2.42270083E-03  1.27414038E-03
        16   18            90.143949  2.42270083E-03  1.27414038E-03
     ---------------------------------------------------------------

 Number of problematic transitions =                    56

--

 Electric-dipole - electric-octupole not included
++ I/O STATISTICS
 
  I. General I/O information
  - - - - - - - - - - - - - - - - - - - - - - - - - - - - - - - - - - - - - - - - - - -
  Unit  Name          Flsize      Write/Read            MBytes           Write/Read
                      (MBytes)       Calls              In/Out           Time, sec.
  - - - - - - - - - - - - - - - - - - - - - - - - - - - - - - - - - - - - - - - - - - -
   1  SCRATCH           0.00 .       9/      45 .      0.0/      0.0 .       0/       0
   2  ANNI              0.00 .       0/       0 .      0.0/      0.0 .       0/       0
   3  RUNFILE          14.85 .     322/   10733 .      2.3/     77.8 .       0/       0
   4  ONEINT            5.58 .       0/   23543 .      0.0/   3739.9 .       0/       0
   5  JOBIPH            6.48 .       0/      92 .      0.0/      0.8 .       0/       0
   6  ORDINT          506.53 .       1/    4053 .      0.0/   1013.0 .       0/       0
  - - - - - - - - - - - - - - - - - - - - - - - - - - - - - - - - - - - - - - - - - - -
   *  TOTAL           533.45 .     332/   38466 .      2.3/   4831.6 .       0/       0
  - - - - - - - - - - - - - - - - - - - - - - - - - - - - - - - - - - - - - - - - - - -
 
  II. I/O Access Patterns
  - - - - - - - - - - - - - - - - - - - -
  Unit  Name               % of random
                         Write/Read calls
  - - - - - - - - - - - - - - - - - - - -
   1  SCRATCH             88.9/ 100.0
   2  ANNI                 0.0/   0.0
   3  RUNFILE             28.6/  10.8
   4  ONEINT               0.0/  16.4
   5  JOBIPH               0.0/  76.1
   6  ORDINT             100.0/   0.0
  - - - - - - - - - - - - - - - - - - - -
--
--- Stop Module: rassi at Fri Jan 10 02:28:59 2025 /rc=_RC_ALL_IS_WELL_ ---
*** files: xmldump
    saved to directory /home4/s4752295/Internship/Initial_simulations/Point_charge_model/1_electron/active_space_9_non_rel/Cr/varying_bond_length
--- Module rassi spent 3 seconds ---

.##################.
.# Happy landing! #.
.##################.

    Timing: Wall=55.06 User=41.41 System=8.73

###############################################################################
Hbrk Cluster
Job 14556692 for user s4752295
Finished at: Fri Jan 10 02:28:59 CET 2025

Job details:
============

Job ID                         : 14556692
Name                           : Cr_no_c_light
User                           : s4752295
Partition                      : regularmedium
Nodes                          : node101
Number of Nodes                : 1
Cores                          : 1
Number of Tasks                : 1
State                          : RUNNING  
Submit                         : 2025-01-10T02:27:58
Start                          : 2025-01-10T02:27:59
End                            : --
Reserved walltime              : 15:00:00
Used walltime                  : 00:01:00
Used CPU time                  : -- 
% User (Computation)           : --
% System (I/O)                 : --
Total memory reserved          : 25000M
Maximum memory used            : --

Acknowledgements:
=================

Please see this page for information about acknowledging Hbrk in your publications:

https://wiki.hpc.rug.nl/habrok/introduction/scientific_output

################################################################################
