   This run of MOLCAS is using the pymolcas driver

                             OPE
                             OPE          NMOL  CASOP  ENMOLC A   SO
                 OPE        NMOLC        AS  OP EN  MO LC     AS  OP
                OPENM       OL CA        SO  PE NM  OL CA     SOP EN
                OP EN      MO   LC       AS  OP ENMOL  CASO   PENMOL
                OP  EN     MO   LC       AS  OP EN     MO     LC ASO
               OP   E  NMOL  C  AS       OP  EN MO     LC     AS  OP
               OP  E   NMO   LC AS        OPEN  MO     LCASOP EN   M
               O  PEN   MO  LCA  SO
            OPE   NMO   L   CAS    OP
        OPENMOL  CASOP     ENMOL   CASOPE
     OPENMOLCA   SOPENMOLCASOPEN   MOLCASOPE
    OPENMOLCAS   OP           EN   MOL    CAS
    OPENMOLCAS       OP  ENM        O     LCA
    OPENMOLCAS    OPEN  MOLCASO     P  E  NMO
    OPENMOLCAS     OP               E  N  MOL
    OPENMOLCA   SO           PENM   O  L  CAS    OPEN    MO    LCAS
    OPENMOLCA   SOP           ENM   O  L  CAS   OP  EN  MOLC  AS   O
    OPENMOLCA   SOPE           NM      O  LCA   S      OP  EN MO
    OPENMOLC                AS         O  PEN   M      OL  CA  SOPE
    OPENMO        LCASOPE  NMOL        C  ASO   P      ENMOLC     AS
    OPE     NMO      LCA  SO     P     E   NM   OL  CA SO  PE N   MO
          OPENMOLCA            SOPE   NMO        LCAS  O    P  ENMO
     OPENMOLCASOPENMOLCASOPENMOLCASOPENMOLCA
        OPENMOLCASOPENMOLCASOPENMOLCASOPE
            OPENMOLCASOPENMOLCASOPENM
               OPENMOLCASOPENMOLCA        version: o91e1abe7de707b ?
                   OPENMOLCASO
                       OPE                tag:

 OpenMolcas is free software; you can redistribute it and/or modify it
 under the terms of the GNU Lesser General Public License version 2.1.
 OpenMolcas is distributed in the hope that it will be useful, but it
 is provided "as is" and without any express or implied warranties.
 For more details see the full text of the license in the file
 LICENSE or in <http://www.gnu.org/licenses/>.

                 Copyright (C) The OpenMolcas Authors
           For the author list and the recommended citation,
                   consult the file CONTRIBUTORS.md

           *************************************************
           * pymolcas version py2.10                       *
           *   build 3068ae8b88c9345ec6cfef6fef7f1169      *
           *   (after the EMIL interpreter by V. Veryazov) *
           *************************************************

configuration info
------------------
Host name: login1 (Linux)
C Compiler ID: GNU
C flags: -std=gnu99
Fortran Compiler ID: GNU
Fortran flags: -fno-aggressive-loop-optimizations -cpp -fdefault-integer-8 -fmax-stack-var-size=1048576
Definitions: _MOLCAS_;_I8_;_LINUX_;_MKL_
Parallel: OFF (GA=OFF)


   ----------------------------------------------------------------------------------------------------------------------------------------------
  |
  |           Project: chromium_so_cf
  |    Submitted from: /home4/s4752295/Internship/Initial_simulations/Point_charge_model/1_electron/active_space_9_non_rel/Cr/varying_bond_length
  |      Scratch area: /tmp/chromium_so_cf
  |   Save outputs to: /home4/s4752295/Internship/Initial_simulations/Point_charge_model/1_electron/active_space_9_non_rel/Cr/varying_bond_length
  |            Molcas: /home4/s4752295/Internship/Molcas/recomp_try/OpenMolcas-master/build
  |
  | Scratch area is empty
  |
  |    MOLCAS_DRIVER = /home4/s4752295/Internship/Molcas/bin/pymolcas
  |    MOLCAS_NPROCS = 1
  |    MOLCAS_SOURCE = /home4/s4752295/Internship/Molcas/recomp_try/OpenMolcas-master
  | MOLCAS_STRUCTURE = 0
  |
   ----------------------------------------------------------------------------------------------------------------------------------------------

++ ---------   Input file   ---------

&SEWARD
AMFi

CLIG
$R

Basis Set
Cr.ANO-rcc.Roos.21s15p10d6f4g2h.10s10p8d6f4g2h.
Spherical d
Cr            0.0       0.0     0.0
End of Basis

Xfield

4
0.000000,  0.000,  1.512        -1.0
1.309430,  0.000, -0.756        -1.0
-0.654715,  1.134, -0.756       -1.0
-0.654715, -1.134, -0.756       -1.0

End of input

&SCF
Occupied
9
Iterations
   50  100
End of Input

&RASSCF
LumOrb
Symmetry
1
Spin
2
Nactel
1 0 0
CIRoot
9 9 1
inactive
9
ras2
9
End of Input

>>> COPY chromium_so_cf.JobIph $SLURM_SUBMIT_DIR/chromium_so_cf.doublet.JobIph

>>> COPY $SLURM_SUBMIT_DIR/chromium_so_cf.doublet.JobIph ./JOB002

&RASSI
NROFJobIph
1 All
SpinOrbit
End of Input

EOF

-- ----------------------------------

--- Start Module: seward at Fri Jan 10 02:22:36 2025 ---

()()()()()()()()()()()()()()()()()()()()()()()()()()()()()()()()()()()()()()()()()()()()()()()()()()

                                              &SEWARD

                                   only a single process is used
                       available to each process: 4.1 GB of memory, 1 thread?
                                            pid: 1092746
()()()()()()()()()()()()()()()()()()()()()()()()()()()()()()()()()()()()()()()()()()()()()()()()()()

 The speed of LIGHT in this CALCULATION =   137.03599917700001     
               SEWARD will generate:
                  Multipole Moment integrals up to order  2
                  Kinetic Energy integrals
                  Nuclear Attraction integrals (point charge)
                  One-Electron Hamiltonian integrals
                  Velocity integrals
                  Relativistic Douglas-Kroll-Hess integrals:
                    - Parametrization         : EXP
                    - DKH order of Hamiltonian: 2
                    - DKH order of Properties : 0
                         - multipole moment operators
                         - electric potential operators
                         - contact operators
                  External field from     4 point(s) added to the one-electron Hamiltonian
                  Orbital angular momentum around ( 0.0000  0.0000  0.0000 )
                  Velocity quadrupole around ( 0.0000  0.0000  0.0000 )
                  Atomic mean-field integrals
                  Two-Electron Repulsion integrals

                   Integrals are discarded if absolute value <: 0.10E-13
                   Integral cutoff threshold is set to       <: 0.10E-15

++    Symmetry information:
      ---------------------

                    Character Table for C1 

                             E  
                    a        1  x, y, xy, Rz, z, xz, Ry, yz, Rx, I
--


++    Basis set information:
      ----------------------


      Basis set label: CR.ANO-RCC.ROOS.21S15P10D6F4G2H.10S10P8D6F4G2H......

      Electronic valence basis set:
      ------------------
      Associated Effective Charge  24.000000 au
      Associated Actual Charge     24.000000 au
      Nuclear Model: Point charge

      Shell  nPrim  nBasis  Cartesian Spherical Contaminant
         s      21      10        X                  
         p      15      10        X                  
         d      10       8                 X         
         f       6       6                 X         
         g       4       4                 X         
         h       2       2                 X         
--


++    Molecular structure info:
      -------------------------

                    ************************************************ 
                    **** Cartesian Coordinates / Bohr, Angstrom **** 
                    ************************************************ 

     Center  Label                x              y              z                     x              y              z
        1      CR               0.000000       0.000000       0.000000              0.000000       0.000000       0.000000
--


++    Operator info:
      --------------


  Net charge from external field:   -4.0000000000000000     
--


            Nuclear Potential Energy              0.00000000 au

                    Nuclear-External Field Potential Energy     -63.49206909 au
                    External Field Potential Energy               2.46828782 au 


            Total Nuclear Potential Energy            -63.49206909 au


      Basis set specifications :
      Symmetry species         a  
      Basis functions          180

 Sorry, Molden does not know how to handle
 functions with angular momentum larger than g
Note: The following floating-point exceptions are signalling: IEEE_UNDERFLOW_FLAG IEEE_DENORMAL
--- Stop Module: seward at Fri Jan 10 02:22:44 2025 /rc=_RC_ALL_IS_WELL_ ---
*** files: chromium_so_cf.GssOrb xmldump
    saved to directory /home4/s4752295/Internship/Initial_simulations/Point_charge_model/1_electron/active_space_9_non_rel/Cr/varying_bond_length
--- Module seward spent 7 seconds ---

*** symbolic link created: INPORB -> chromium_so_cf.GssOrb
--- Start Module: scf at Fri Jan 10 02:22:44 2025 ---

()()()()()()()()()()()()()()()()()()()()()()()()()()()()()()()()()()()()()()()()()()()()()()()()()()

                                                &SCF

                                   only a single process is used
                       available to each process: 4.1 GB of memory, 1 thread?
                                            pid: 1092759
()()()()()()()()()()()()()()()()()()()()()()()()()()()()()()()()()()()()()()()()()()()()()()()()()()

++    Input section:
      --------------

      Header of the integral files:
      
       Integrals generated by seward 4.2.0  , Fri Jan 10 02:22:36 2025


      Cartesian coordinates in Angstrom:
      -----------------------------------------------------
      No.  Label        X            Y            Z        
      -----------------------------------------------------
       1   CR         0.00000000   0.00000000   0.00000000
      -----------------------------------------------------
      Nuclear repulsion energy =  -63.49206909
--

++    Orbital specifications:
      -----------------------

      Symmetry species               1
                                     a
      Frozen orbitals                0
      Occupied orbitals              9
      Secondary orbitals           171
      Deleted orbitals               0
      Total number of orbitals     180
      Number of basis functions    180
--

      Molecular charge                           6.000

++    Optimization specifications:
      ----------------------------

      SCF Algorithm: Conventional
      Minimized density differences are used
      Number of density matrices in core                5
      Maximum number of NDDO SCF iterations            50
      Maximum number of HF SCF iterations             100
      Threshold for SCF energy change            0.10E-08
      Threshold for density matrix               0.10E-03
      Threshold for Fock matrix                  0.15E-03
      Threshold for linear dependence            0.10E-08
      Threshold at which DIIS is turned on       0.15E+00
      Threshold at which QNR/C2DIIS is turned on 0.75E-01
      Threshold for Norm(delta) (QNR/C2DIIS)     0.20E-04
      DIIS extrapolation of the SCF procedure
      All orbitals punched on: SCFORB
--

      Detected guessorb starting orbitals                                             


++ Convergence information
                                   SCF        iterations: Energy and convergence statistics

Iter     Tot. SCF        One-elec.       Two-elec.     Energy      Max Dij or  Max Fij      DNorm      TNorm      AccCon     Time
         Energy          Energy          Energy        Change      Delta Norm                                                in Sec.

 The total and one-electron energies are shifted by a value of      1000. a.u.

   1   -55.741098599  -297.625692587   305.376663078   0.00E+00    0.13E+00*   0.39E+00*    0.60E+01   0.25E+03   None         1.
   2   -56.297931790  -308.934859741   316.128997041  -0.56E+00*   0.44E-01*   0.67E-01*    0.99E+00   0.25E+03   EDIIS        1.
   3   -56.310929056  -307.464980665   314.646120699  -0.13E-01*   0.11E-01*   0.14E-01*    0.14E+00   0.25E+03   EDIIS        1.
   4   -56.311779106  -307.701640063   314.881930048  -0.85E-03*   0.54E-02*   0.59E-02*    0.23E-01   0.25E+03   c2DIIS       1.
   5   -56.311870969  -307.664020710   314.844218832  -0.92E-04*   0.15E-02*   0.23E-02*    0.29E-02   0.25E+03   QNRc2DIIS    1.
   6   -56.311888591  -307.664685015   314.844865515  -0.18E-04*   0.93E-03*   0.95E-03*    0.32E-03   0.25E+03   QNRc2DIIS    1.
   7   -56.311891555  -307.663358625   314.843536161  -0.30E-05*   0.15E-04    0.33E-04     0.51E-04   0.25E+03   QNRc2DIIS    1.
   8   -56.311891557  -307.663576404   314.843753937  -0.21E-08*   0.13E-05    0.13E-05     0.12E-04   0.25E+03   QNRc2DIIS    1.
   9   -56.311891557  -307.663590901   314.843768434  -0.13E-10    0.20E-06    0.33E-06     0.85E-03   0.25E+03   QNRc2DIIS    1.

       Convergence after  9 Macro Iterations
--

 *****************************************************************************************************************************
 *                                                                                                                           *
 *                                             SCF/KS-DFT Program, Final results                                             *
 *                                                                                                                           *
 *                                                                                                                           *
 *                                                                                                                           *
 *                                                       Final Results                                                       *
 *                                                                                                                           *
 *****************************************************************************************************************************

::    Total SCF energy                              -1056.3118915573
      One-electron energy                           -1307.6635909005
      Two-electron energy                             314.8437684337
      Nuclear repulsion energy                        -63.4920690905
      Kinetic energy (interpolated)                  1077.1593957475
      Virial theorem                                    0.9806458503
      Total spin, S(S+1)                                0.0000000000
      Total spin, S                                     0.0000000000
      Max non-diagonal density matrix element           0.0000002307
      Max non-diagonal Fock matrix element              0.0000000264


      All orbitals with orbital energies smaller than  E(LUMO)+0.5 are printed

++    Molecular orbitals:
      -------------------

      Title: SCF orbitals

      Molecular orbitals for symmetry species 1: a  

          Orbital            1         2         3         4         5         6         7         8         9        10    
          Energy         -223.7595  -28.4203  -24.0475  -24.0475  -24.0432   -4.6974   -3.3550   -3.3550   -3.2626   -0.8056
          Occ. No.          2.0000    2.0000    2.0000    2.0000    2.0000    2.0000    2.0000    2.0000    2.0000    0.0000

        1 CR     1s         1.0000   -0.0001   -0.0000   -0.0000   -0.0000    0.0001   -0.0000   -0.0000    0.0000   -0.0000
        2 CR     2s         0.0001    1.0000    0.0000    0.0000   -0.0018    0.0024    0.0000   -0.0000   -0.0004   -0.0000
        3 CR     3s        -0.0001   -0.0024   -0.0000   -0.0000    0.0004    0.9946    0.0000   -0.0000   -0.0483   -0.0000
        4 CR     4s         0.0000    0.0001    0.0000    0.0000   -0.0001   -0.0414    0.0000   -0.0000    0.0074    0.0000
        5 CR     5s        -0.0000   -0.0006   -0.0000   -0.0000    0.0001    0.0649   -0.0000   -0.0000   -0.0128   -0.0000
        6 CR     6s         0.0000    0.0004    0.0000    0.0000   -0.0001   -0.0307   -0.0000    0.0000    0.0064   -0.0000
        7 CR     7s        -0.0000   -0.0001    0.0000    0.0000    0.0000   -0.0042    0.0000    0.0000    0.0008    0.0000
        8 CR     8s         0.0000   -0.0000   -0.0000   -0.0000   -0.0000    0.0049   -0.0000    0.0000   -0.0012    0.0000
        9 CR     9s        -0.0001    0.0002    0.0000    0.0000    0.0000    0.0001   -0.0000    0.0000    0.0000   -0.0000
       10 CR    10s         0.0001   -0.0002   -0.0000   -0.0000    0.0000    0.0001   -0.0000    0.0000    0.0000   -0.0000
       11 CR     2px       -0.0000   -0.0000    0.0046    1.0000   -0.0000    0.0000    0.0033   -0.0000   -0.0000   -0.0000
       12 CR     3px        0.0000   -0.0000   -0.0000   -0.0032    0.0000   -0.0000    0.9904   -0.0000   -0.0000    0.0029
       13 CR     4px       -0.0000    0.0000    0.0000    0.0005   -0.0000    0.0000   -0.0699    0.0000    0.0000   -0.0009
       14 CR     5px        0.0000   -0.0000   -0.0000   -0.0009    0.0000   -0.0000    0.0805   -0.0000   -0.0000    0.0035
       15 CR     6px       -0.0000    0.0000    0.0000    0.0002   -0.0000   -0.0000   -0.0063    0.0000    0.0000   -0.0008
       16 CR     7px        0.0000   -0.0000   -0.0000   -0.0000    0.0000    0.0000   -0.0075    0.0000    0.0000   -0.0004
       17 CR     8px       -0.0000    0.0000   -0.0000   -0.0002    0.0000   -0.0000    0.0029   -0.0000   -0.0000    0.0007
       18 CR     9px        0.0000    0.0000    0.0000    0.0003   -0.0000   -0.0000    0.0005   -0.0000    0.0000   -0.0001
       19 CR    10px       -0.0000    0.0000   -0.0000   -0.0003    0.0000    0.0000   -0.0011    0.0000    0.0000   -0.0004
       20 CR    11px        0.0000   -0.0000    0.0000    0.0002   -0.0000    0.0000   -0.0005    0.0000    0.0000   -0.0001
       21 CR     2py       -0.0000   -0.0000    1.0000   -0.0046   -0.0000   -0.0000    0.0000    0.0033   -0.0000    0.0000
       22 CR     3py        0.0000    0.0000   -0.0032    0.0000    0.0000   -0.0000    0.0000    0.9904   -0.0000   -0.0000
       23 CR     4py       -0.0000   -0.0000    0.0005   -0.0000   -0.0000    0.0000   -0.0000   -0.0699    0.0000    0.0000
       24 CR     5py        0.0000    0.0000   -0.0009    0.0000    0.0000   -0.0000    0.0000    0.0805   -0.0000   -0.0000
       25 CR     6py       -0.0000   -0.0000    0.0002   -0.0000   -0.0000    0.0000   -0.0000   -0.0063    0.0000    0.0000
       26 CR     7py        0.0000    0.0000   -0.0000    0.0000    0.0000   -0.0000   -0.0000   -0.0075    0.0000    0.0000
       27 CR     8py       -0.0000   -0.0000   -0.0002    0.0000    0.0000    0.0000    0.0000    0.0029    0.0000   -0.0000
       28 CR     9py        0.0000    0.0000    0.0003   -0.0000   -0.0000   -0.0000    0.0000    0.0005    0.0000    0.0000
       29 CR    10py       -0.0000   -0.0000   -0.0003    0.0000    0.0000    0.0000   -0.0000   -0.0011    0.0000    0.0000
       30 CR    11py        0.0000    0.0000    0.0002   -0.0000   -0.0000   -0.0000   -0.0000   -0.0005    0.0000    0.0000
       31 CR     2pz        0.0000    0.0018    0.0000    0.0000    1.0000   -0.0002    0.0000   -0.0000    0.0037    0.0000
       32 CR     3pz       -0.0000    0.0003   -0.0000   -0.0000   -0.0036    0.0490    0.0000   -0.0000    0.9900    0.0000
       33 CR     4pz        0.0000   -0.0001    0.0000    0.0000    0.0006   -0.0018   -0.0000    0.0000   -0.0759   -0.0000
       34 CR     5pz       -0.0000    0.0001   -0.0000   -0.0000   -0.0011   -0.0002    0.0000    0.0000    0.0920    0.0000
       35 CR     6pz        0.0000   -0.0000    0.0000    0.0000    0.0003    0.0014   -0.0000   -0.0000   -0.0097   -0.0000
       36 CR     7pz       -0.0000    0.0000   -0.0000   -0.0000   -0.0001   -0.0014   -0.0000   -0.0000   -0.0066   -0.0000
       37 CR     8pz        0.0000   -0.0000   -0.0000   -0.0000   -0.0001   -0.0003    0.0000   -0.0000    0.0044    0.0000
       38 CR     9pz       -0.0000    0.0000    0.0000    0.0000    0.0003    0.0006    0.0000    0.0000   -0.0004    0.0000
       39 CR    10pz        0.0000   -0.0000   -0.0000   -0.0000   -0.0003    0.0002   -0.0000    0.0000   -0.0020   -0.0000
       40 CR    11pz       -0.0000    0.0000    0.0000    0.0000    0.0002    0.0000   -0.0000    0.0000   -0.0007   -0.0000
       41 CR     3d2-       0.0000    0.0000    0.0002   -0.0000   -0.0000   -0.0000    0.0000    0.0427   -0.0000    0.0000
       42 CR     4d2-      -0.0000   -0.0000   -0.0001    0.0000    0.0000    0.0000   -0.0000   -0.0108    0.0000   -0.0000
       43 CR     5d2-       0.0000    0.0000    0.0000   -0.0000    0.0000   -0.0000   -0.0000   -0.0063    0.0000   -0.0000
       44 CR     6d2-      -0.0000   -0.0000    0.0001   -0.0000   -0.0000   -0.0000    0.0000    0.0041   -0.0000   -0.0000
       45 CR     7d2-       0.0000    0.0000   -0.0001    0.0000    0.0000   -0.0000    0.0000    0.0021   -0.0000    0.0000
       46 CR     8d2-      -0.0000   -0.0000    0.0000   -0.0000   -0.0000    0.0000   -0.0000   -0.0015   -0.0000    0.0000
       47 CR     9d2-       0.0000    0.0000   -0.0000    0.0000    0.0000   -0.0000   -0.0000   -0.0010    0.0000    0.0000
       48 CR    10d2-      -0.0000    0.0000    0.0000   -0.0000   -0.0000   -0.0000    0.0000    0.0001    0.0000    0.0000
       49 CR     3d1-      -0.0000    0.0000    0.0003   -0.0000   -0.0000   -0.0000    0.0000    0.0670   -0.0000   -0.0000
       50 CR     4d1-       0.0000   -0.0000   -0.0002    0.0000    0.0000    0.0000   -0.0000   -0.0175    0.0000    0.0000
       51 CR     5d1-      -0.0000    0.0000    0.0001   -0.0000   -0.0000   -0.0000   -0.0000   -0.0089    0.0000    0.0000
       52 CR     6d1-      -0.0000   -0.0000    0.0000   -0.0000   -0.0000    0.0000    0.0000    0.0062   -0.0000    0.0000
       53 CR     7d1-       0.0000    0.0000   -0.0000    0.0000    0.0000    0.0000    0.0000    0.0029   -0.0000   -0.0000
       54 CR     8d1-      -0.0000   -0.0000    0.0000   -0.0000   -0.0000   -0.0000   -0.0000   -0.0021    0.0000   -0.0000
       55 CR     9d1-       0.0000    0.0000   -0.0000    0.0000    0.0000   -0.0000   -0.0000   -0.0014    0.0000   -0.0000
       56 CR    10d1-       0.0000   -0.0000   -0.0000    0.0000    0.0000    0.0000    0.0000    0.0001    0.0000   -0.0000
       57 CR     3d0       -0.0000   -0.0002   -0.0000   -0.0000   -0.0001   -0.0191   -0.0000    0.0000   -0.0406   -0.0000
       58 CR     4d0        0.0000    0.0001   -0.0000   -0.0000   -0.0000    0.0052    0.0000   -0.0000    0.0093    0.0000
       59 CR     5d0       -0.0000   -0.0001    0.0000    0.0000    0.0001    0.0033    0.0000    0.0000    0.0071    0.0000
       60 CR     6d0        0.0000    0.0001   -0.0000   -0.0000   -0.0002   -0.0029   -0.0000   -0.0000   -0.0041    0.0000
       61 CR     7d0       -0.0000   -0.0000    0.0000    0.0000    0.0001   -0.0007   -0.0000   -0.0000   -0.0026   -0.0000
       62 CR     8d0        0.0000    0.0000   -0.0000   -0.0000   -0.0001    0.0010    0.0000    0.0000    0.0018   -0.0000
       63 CR     9d0       -0.0000   -0.0000    0.0000    0.0000    0.0001    0.0003    0.0000    0.0000    0.0013   -0.0000
       64 CR    10d0        0.0000   -0.0000   -0.0000   -0.0000   -0.0000   -0.0001    0.0000    0.0000   -0.0001    0.0000
       65 CR     3d1+      -0.0000    0.0000    0.0000    0.0003   -0.0000    0.0000    0.0670   -0.0000   -0.0000    0.4891
       66 CR     4d1+      -0.0000   -0.0000   -0.0000   -0.0002    0.0000   -0.0000   -0.0175    0.0000    0.0000   -0.0851
       67 CR     5d1+       0.0000    0.0000    0.0000    0.0001   -0.0000   -0.0000   -0.0089    0.0000    0.0000   -0.0034
       68 CR     6d1+      -0.0000   -0.0000    0.0000    0.0000    0.0000    0.0000    0.0062   -0.0000   -0.0000   -0.0022
       69 CR     7d1+       0.0000   -0.0000   -0.0000   -0.0000    0.0000   -0.0000    0.0029   -0.0000   -0.0000    0.0020
       70 CR     8d1+      -0.0000    0.0000    0.0000    0.0000   -0.0000   -0.0000   -0.0021    0.0000    0.0000    0.0017
       71 CR     9d1+       0.0000   -0.0000   -0.0000   -0.0000   -0.0000    0.0000   -0.0014    0.0000    0.0000    0.0009
       72 CR    10d1+      -0.0000    0.0000   -0.0000   -0.0000    0.0000    0.0000    0.0001   -0.0000   -0.0000    0.0003
       73 CR     3d2+       0.0000    0.0000   -0.0000   -0.0002    0.0000    0.0000   -0.0427    0.0000    0.0000    0.8538
       74 CR     4d2+      -0.0000   -0.0000    0.0000    0.0001   -0.0000    0.0000    0.0108   -0.0000   -0.0000   -0.1482
       75 CR     5d2+       0.0000    0.0000   -0.0000   -0.0000    0.0000   -0.0000    0.0063   -0.0000   -0.0000   -0.0027
       76 CR     6d2+      -0.0000   -0.0000   -0.0000   -0.0001    0.0000    0.0000   -0.0041    0.0000    0.0000   -0.0048
       77 CR     7d2+      -0.0000    0.0000    0.0000    0.0001   -0.0000    0.0000   -0.0021    0.0000    0.0000    0.0020
       78 CR     8d2+       0.0000   -0.0000   -0.0000   -0.0000    0.0000   -0.0000    0.0015   -0.0000   -0.0000    0.0036
       79 CR     9d2+      -0.0000    0.0000    0.0000    0.0000   -0.0000   -0.0000    0.0010   -0.0000    0.0000    0.0028
       80 CR    10d2+       0.0000    0.0000   -0.0000   -0.0000    0.0000   -0.0000   -0.0001    0.0000    0.0000    0.0007
       81 CR     4f3-      -0.0000   -0.0000    0.0000   -0.0000    0.0000    0.0000    0.0000    0.0000   -0.0000   -0.0000
       82 CR     5f3-       0.0000    0.0000   -0.0000    0.0000    0.0000   -0.0000    0.0000    0.0000   -0.0000    0.0000
       83 CR     6f3-      -0.0000   -0.0000    0.0000   -0.0000   -0.0000    0.0000   -0.0000   -0.0000   -0.0000    0.0000
       84 CR     7f3-       0.0000    0.0000   -0.0000    0.0000    0.0000   -0.0000    0.0000    0.0000    0.0000   -0.0000
       85 CR     8f3-      -0.0000   -0.0000    0.0000   -0.0000   -0.0000    0.0000    0.0000    0.0000   -0.0000   -0.0000
       86 CR     9f3-       0.0000    0.0000   -0.0000    0.0000    0.0000   -0.0000    0.0000    0.0000   -0.0000   -0.0000
       87 CR     4f2-      -0.0000   -0.0000   -0.0001    0.0000    0.0000   -0.0000   -0.0000   -0.0117    0.0000    0.0000
       88 CR     5f2-       0.0000    0.0000    0.0000   -0.0000   -0.0000    0.0000   -0.0000   -0.0005   -0.0000    0.0000
       89 CR     6f2-      -0.0000   -0.0000   -0.0000    0.0000    0.0000   -0.0000    0.0000    0.0040   -0.0000   -0.0000
       90 CR     7f2-       0.0000   -0.0000    0.0000   -0.0000   -0.0000   -0.0000   -0.0000   -0.0015    0.0000   -0.0000
       91 CR     8f2-      -0.0000    0.0000    0.0000   -0.0000   -0.0000    0.0000   -0.0000   -0.0009    0.0000    0.0000
       92 CR     9f2-       0.0000   -0.0000    0.0000   -0.0000   -0.0000   -0.0000    0.0000    0.0004   -0.0000    0.0000
       93 CR     4f1-      -0.0000   -0.0000   -0.0001    0.0000    0.0000    0.0000   -0.0000   -0.0085    0.0000   -0.0000
       94 CR     5f1-       0.0000    0.0000    0.0001   -0.0000   -0.0000   -0.0000    0.0000    0.0002   -0.0000   -0.0000
       95 CR     6f1-      -0.0000   -0.0000   -0.0001    0.0000    0.0000    0.0000    0.0000    0.0021   -0.0000    0.0000
       96 CR     7f1-       0.0000    0.0000    0.0000   -0.0000   -0.0000   -0.0000   -0.0000   -0.0008   -0.0000    0.0000
       97 CR     8f1-      -0.0000   -0.0000   -0.0000    0.0000    0.0000    0.0000   -0.0000   -0.0004    0.0000    0.0000
       98 CR     9f1-      -0.0000    0.0000    0.0000   -0.0000   -0.0000   -0.0000    0.0000    0.0001   -0.0000   -0.0000
       99 CR     4f0        0.0000   -0.0003   -0.0000   -0.0000   -0.0001   -0.0253   -0.0000    0.0000   -0.0116    0.0000
      100 CR     5f0       -0.0000    0.0002    0.0000    0.0000    0.0001    0.0017    0.0000   -0.0000    0.0000    0.0000
      101 CR     6f0        0.0000   -0.0001   -0.0000   -0.0000   -0.0001    0.0072    0.0000   -0.0000    0.0029   -0.0000
      102 CR     7f0       -0.0000   -0.0000    0.0000    0.0000    0.0000   -0.0036   -0.0000    0.0000   -0.0009    0.0000
      103 CR     8f0        0.0000    0.0000   -0.0000   -0.0000   -0.0000   -0.0015   -0.0000   -0.0000   -0.0005    0.0000
      104 CR     9f0       -0.0000   -0.0000    0.0000    0.0000    0.0000    0.0010    0.0000   -0.0000    0.0000    0.0000
      105 CR     4f1+       0.0000   -0.0000   -0.0000   -0.0001    0.0000   -0.0000   -0.0085    0.0000    0.0000    0.0147
      106 CR     5f1+      -0.0000    0.0000    0.0000    0.0001   -0.0000    0.0000    0.0002   -0.0000   -0.0000    0.0060
      107 CR     6f1+       0.0000   -0.0000   -0.0000   -0.0001    0.0000    0.0000    0.0021   -0.0000   -0.0000   -0.0010
      108 CR     7f1+      -0.0000   -0.0000    0.0000    0.0000   -0.0000   -0.0000   -0.0008    0.0000    0.0000   -0.0007
      109 CR     8f1+       0.0000    0.0000   -0.0000   -0.0000    0.0000   -0.0000   -0.0004    0.0000    0.0000   -0.0002
      110 CR     9f1+      -0.0000   -0.0000    0.0000    0.0000   -0.0000    0.0000    0.0001   -0.0000   -0.0000    0.0001
      111 CR     4f2+      -0.0000    0.0000    0.0000    0.0001   -0.0000   -0.0000    0.0117   -0.0000   -0.0000    0.0399
      112 CR     5f2+       0.0000   -0.0000   -0.0000   -0.0000    0.0000   -0.0000    0.0005   -0.0000    0.0000    0.0152
      113 CR     6f2+      -0.0000    0.0000    0.0000    0.0000   -0.0000    0.0000   -0.0040    0.0000    0.0000   -0.0048
      114 CR     7f2+       0.0000   -0.0000   -0.0000   -0.0000   -0.0000    0.0000    0.0015   -0.0000   -0.0000   -0.0017
      115 CR     8f2+      -0.0000    0.0000   -0.0000   -0.0000    0.0000   -0.0000    0.0009   -0.0000   -0.0000    0.0001
      116 CR     9f2+       0.0000   -0.0000   -0.0000   -0.0000   -0.0000   -0.0000   -0.0004    0.0000    0.0000    0.0004
      117 CR     4f3+       0.0000   -0.0002    0.0000    0.0000    0.0000   -0.0164    0.0000   -0.0000    0.0123   -0.0000
      118 CR     5f3+      -0.0000    0.0001   -0.0000   -0.0000   -0.0000    0.0012    0.0000   -0.0000    0.0005   -0.0000
      119 CR     6f3+       0.0000   -0.0000    0.0000    0.0000    0.0000    0.0046   -0.0000    0.0000   -0.0041    0.0000
      120 CR     7f3+      -0.0000   -0.0000   -0.0000   -0.0000   -0.0000   -0.0024   -0.0000    0.0000    0.0015   -0.0000
      121 CR     8f3+       0.0000    0.0000    0.0000    0.0000   -0.0000   -0.0009    0.0000    0.0000    0.0009    0.0000
      122 CR     9f3+      -0.0000   -0.0000   -0.0000   -0.0000    0.0000    0.0006    0.0000   -0.0000   -0.0003    0.0000
      123 CR     5g4-      -0.0000   -0.0000   -0.0001    0.0000    0.0000    0.0000   -0.0000   -0.0103    0.0000   -0.0000
      124 CR     6g4-       0.0000    0.0000    0.0000   -0.0000   -0.0000    0.0000   -0.0000   -0.0030    0.0000   -0.0000
      125 CR     7g4-      -0.0000   -0.0000   -0.0000    0.0000    0.0000   -0.0000    0.0000    0.0025   -0.0000   -0.0000
      126 CR     8g4-       0.0000    0.0000   -0.0000    0.0000   -0.0000    0.0000    0.0000    0.0006   -0.0000    0.0000
      127 CR     5g3-       0.0000    0.0000   -0.0000    0.0000    0.0000    0.0000   -0.0000   -0.0000   -0.0000    0.0000
      128 CR     6g3-      -0.0000   -0.0000   -0.0000    0.0000    0.0000   -0.0000   -0.0000   -0.0000    0.0000   -0.0000
      129 CR     7g3-       0.0000    0.0000    0.0000   -0.0000    0.0000    0.0000    0.0000    0.0000   -0.0000   -0.0000
      130 CR     8g3-      -0.0000   -0.0000   -0.0000    0.0000    0.0000   -0.0000    0.0000    0.0000    0.0000    0.0000
      131 CR     5g2-      -0.0000   -0.0000   -0.0000    0.0000    0.0000   -0.0000    0.0000    0.0009   -0.0000   -0.0000
      132 CR     6g2-       0.0000    0.0000    0.0000   -0.0000   -0.0000   -0.0000    0.0000    0.0004   -0.0000   -0.0000
      133 CR     7g2-      -0.0000   -0.0000   -0.0000    0.0000    0.0000    0.0000   -0.0000   -0.0005    0.0000   -0.0000
      134 CR     8g2-       0.0000    0.0000    0.0000   -0.0000   -0.0000   -0.0000   -0.0000   -0.0001   -0.0000    0.0000
      135 CR     5g1-       0.0000    0.0000   -0.0001    0.0000    0.0000    0.0000   -0.0000   -0.0127    0.0000    0.0000
      136 CR     6g1-       0.0000   -0.0000    0.0001   -0.0000   -0.0000   -0.0000   -0.0000   -0.0037    0.0000    0.0000
      137 CR     7g1-      -0.0000   -0.0000   -0.0000    0.0000    0.0000    0.0000    0.0000    0.0030   -0.0000   -0.0000
      138 CR     8g1-       0.0000    0.0000   -0.0000    0.0000    0.0000   -0.0000    0.0000    0.0008   -0.0000   -0.0000
      139 CR     5g0        0.0000   -0.0000   -0.0000   -0.0000   -0.0002   -0.0014   -0.0000   -0.0000   -0.0212    0.0000
      140 CR     6g0       -0.0000    0.0000    0.0000    0.0000    0.0001   -0.0004   -0.0000   -0.0000   -0.0066    0.0000
      141 CR     7g0       -0.0000   -0.0000   -0.0000   -0.0000   -0.0000    0.0004    0.0000   -0.0000    0.0054    0.0000
      142 CR     8g0        0.0000   -0.0000   -0.0000   -0.0000   -0.0000    0.0001    0.0000    0.0000    0.0014   -0.0000
      143 CR     5g1+       0.0000   -0.0000   -0.0000   -0.0001    0.0000   -0.0000   -0.0127    0.0000    0.0000   -0.0103
      144 CR     6g1+      -0.0000    0.0000    0.0000    0.0001   -0.0000    0.0000   -0.0037    0.0000    0.0000   -0.0063
      145 CR     7g1+       0.0000   -0.0000   -0.0000   -0.0000    0.0000    0.0000    0.0030   -0.0000   -0.0000    0.0001
      146 CR     8g1+       0.0000    0.0000   -0.0000   -0.0000    0.0000   -0.0000    0.0008   -0.0000   -0.0000    0.0011
      147 CR     5g2+       0.0000   -0.0000    0.0000    0.0000    0.0000   -0.0000   -0.0009    0.0000    0.0000   -0.0030
      148 CR     6g2+      -0.0000    0.0000   -0.0000   -0.0000   -0.0000    0.0000   -0.0004    0.0000   -0.0000   -0.0017
      149 CR     7g2+       0.0000   -0.0000    0.0000    0.0000    0.0000    0.0000    0.0005   -0.0000   -0.0000   -0.0002
      150 CR     8g2+       0.0000    0.0000   -0.0000   -0.0000   -0.0000   -0.0000    0.0001   -0.0000    0.0000    0.0002
      151 CR     5g3+      -0.0000    0.0001   -0.0000   -0.0000   -0.0001    0.0097   -0.0000   -0.0000   -0.0128    0.0000
      152 CR     6g3+       0.0000   -0.0000    0.0000    0.0000    0.0000    0.0023   -0.0000    0.0000   -0.0040    0.0000
      153 CR     7g3+       0.0000    0.0000    0.0000    0.0000   -0.0000   -0.0029    0.0000    0.0000    0.0034    0.0000
      154 CR     8g3+      -0.0000   -0.0000   -0.0000   -0.0000   -0.0000   -0.0001    0.0000   -0.0000    0.0008    0.0000
      155 CR     5g4+       0.0000   -0.0000   -0.0000   -0.0001    0.0000   -0.0000   -0.0103    0.0000    0.0000    0.0020
      156 CR     6g4+      -0.0000    0.0000    0.0000    0.0000   -0.0000    0.0000   -0.0030    0.0000    0.0000    0.0013
      157 CR     7g4+       0.0000   -0.0000   -0.0000   -0.0000    0.0000    0.0000    0.0025   -0.0000   -0.0000    0.0001
      158 CR     8g4+       0.0000    0.0000   -0.0000   -0.0000    0.0000   -0.0000    0.0006   -0.0000   -0.0000   -0.0002
      159 CR     6h5-      -0.0000   -0.0000    0.0000   -0.0000    0.0000    0.0000    0.0000    0.0015   -0.0000   -0.0000
      160 CR     7h5-       0.0000    0.0000   -0.0000    0.0000   -0.0000   -0.0000    0.0000    0.0006   -0.0000   -0.0000
      161 CR     6h4-      -0.0000    0.0000    0.0000   -0.0000   -0.0000   -0.0000    0.0000    0.0068   -0.0000    0.0000
      162 CR     7h4-      -0.0000    0.0000   -0.0000    0.0000    0.0000   -0.0000    0.0000    0.0022   -0.0000    0.0000
      163 CR     6h3-      -0.0000   -0.0000   -0.0000    0.0000    0.0000    0.0000    0.0000    0.0000    0.0000   -0.0000
      164 CR     7h3-       0.0000    0.0000    0.0000   -0.0000   -0.0000   -0.0000   -0.0000    0.0000    0.0000   -0.0000
      165 CR     6h2-      -0.0000    0.0000    0.0000   -0.0000   -0.0000   -0.0000    0.0000    0.0022   -0.0000   -0.0000
      166 CR     7h2-      -0.0000    0.0000   -0.0000    0.0000    0.0000   -0.0000    0.0000    0.0007   -0.0000   -0.0000
      167 CR     6h1-      -0.0000   -0.0000    0.0000   -0.0000   -0.0000    0.0000    0.0000    0.0016   -0.0000    0.0000
      168 CR     7h1-       0.0000    0.0000   -0.0000    0.0000   -0.0000   -0.0000    0.0000    0.0006    0.0000    0.0000
      169 CR     6h0        0.0000   -0.0000   -0.0000   -0.0000   -0.0000   -0.0020   -0.0000   -0.0000   -0.0045    0.0000
      170 CR     7h0       -0.0000    0.0000    0.0000    0.0000    0.0000   -0.0005   -0.0000   -0.0000   -0.0018    0.0000
      171 CR     6h1+      -0.0000    0.0000    0.0000    0.0000   -0.0000    0.0000    0.0016   -0.0000   -0.0000   -0.0061
      172 CR     7h1+       0.0000   -0.0000   -0.0000   -0.0000    0.0000   -0.0000    0.0006   -0.0000    0.0000   -0.0039
      173 CR     6h2+      -0.0000    0.0000   -0.0000   -0.0000    0.0000    0.0000   -0.0022    0.0000    0.0000   -0.0072
      174 CR     7h2+      -0.0000   -0.0000    0.0000    0.0000   -0.0000    0.0000   -0.0007    0.0000   -0.0000   -0.0046
      175 CR     6h3+       0.0000   -0.0000    0.0000    0.0000    0.0000   -0.0032    0.0000    0.0000    0.0068   -0.0000
      176 CR     7h3+      -0.0000    0.0000   -0.0000   -0.0000   -0.0000   -0.0008    0.0000    0.0000    0.0022   -0.0000
      177 CR     6h4+      -0.0000    0.0000    0.0000    0.0000   -0.0000    0.0000    0.0068   -0.0000   -0.0000   -0.0034
      178 CR     7h4+       0.0000   -0.0000   -0.0000   -0.0000    0.0000   -0.0000    0.0022   -0.0000   -0.0000   -0.0021
      179 CR     6h5+      -0.0000    0.0000   -0.0000   -0.0000    0.0000    0.0000   -0.0015    0.0000    0.0000   -0.0093
      180 CR     7h5+      -0.0000   -0.0000    0.0000    0.0000   -0.0000    0.0000   -0.0006    0.0000   -0.0000   -0.0058

          Orbital           11        12        13        14        15        16        17        18    
          Energy           -0.8056   -0.6825   -0.6762   -0.6762   -0.5166   -0.3758   -0.3758   -0.3379
          Occ. No.          0.0000    0.0000    0.0000    0.0000    0.0000    0.0000    0.0000    0.0000

        1 CR     1s         0.0000    0.0000    0.0000   -0.0000    0.0000    0.0000   -0.0000    0.0000
        2 CR     2s         0.0000    0.0002    0.0000   -0.0000    0.0000    0.0000   -0.0000    0.0000
        3 CR     3s         0.0000    0.0078   -0.0000   -0.0000   -0.0473    0.0000   -0.0000   -0.0087
        4 CR     4s        -0.0000   -0.1400    0.0000    0.0000   -0.9415   -0.0000   -0.0000   -0.2099
        5 CR     5s         0.0000    0.0642   -0.0000   -0.0000    0.1516    0.0000   -0.0000   -0.0134
        6 CR     6s         0.0000    0.0099   -0.0000   -0.0000    0.0854    0.0000    0.0000   -0.0090
        7 CR     7s        -0.0000   -0.0097    0.0000    0.0000    0.0048   -0.0000    0.0000    0.0049
        8 CR     8s        -0.0000   -0.0030   -0.0000    0.0000   -0.0175   -0.0000   -0.0000    0.0038
        9 CR     9s         0.0000    0.0001   -0.0000    0.0000   -0.0070   -0.0000   -0.0000    0.0003
       10 CR    10s        -0.0000   -0.0000   -0.0000    0.0000   -0.0007   -0.0000   -0.0000    0.0000
       11 CR     2px        0.0000   -0.0000   -0.0000   -0.0007    0.0000   -0.0001    0.0000    0.0000
       12 CR     3px       -0.0000   -0.0000   -0.0000   -0.0655    0.0000    0.0636   -0.0000    0.0000
       13 CR     4px        0.0000    0.0000    0.0000    0.1234   -0.0000    0.9633   -0.0000   -0.0000
       14 CR     5px       -0.0000   -0.0000   -0.0000   -0.0618   -0.0000    0.1674   -0.0000   -0.0000
       15 CR     6px        0.0000   -0.0000   -0.0000   -0.0140    0.0000    0.0199   -0.0000   -0.0000
       16 CR     7px        0.0000    0.0000    0.0000    0.0123    0.0000   -0.0414    0.0000    0.0000
       17 CR     8px       -0.0000    0.0000    0.0000    0.0023   -0.0000   -0.0266    0.0000    0.0000
       18 CR     9px        0.0000    0.0000    0.0000    0.0004   -0.0000   -0.0049    0.0000    0.0000
       19 CR    10px        0.0000    0.0000    0.0000    0.0015    0.0000    0.0003   -0.0000    0.0000
       20 CR    11px        0.0000    0.0000    0.0000    0.0004    0.0000    0.0002   -0.0000    0.0000
       21 CR     2py        0.0000    0.0000   -0.0007    0.0000   -0.0000   -0.0000   -0.0001   -0.0000
       22 CR     3py       -0.0029   -0.0000   -0.0655    0.0000   -0.0000    0.0000    0.0636   -0.0000
       23 CR     4py        0.0009    0.0000    0.1234   -0.0000   -0.0000    0.0000    0.9633   -0.0000
       24 CR     5py       -0.0035    0.0000   -0.0618    0.0000   -0.0000    0.0000    0.1674   -0.0000
       25 CR     6py        0.0008    0.0000   -0.0140    0.0000   -0.0000    0.0000    0.0199    0.0000
       26 CR     7py        0.0004   -0.0000    0.0123   -0.0000    0.0000   -0.0000   -0.0414    0.0000
       27 CR     8py       -0.0007   -0.0000    0.0023   -0.0000    0.0000   -0.0000   -0.0266    0.0000
       28 CR     9py        0.0001    0.0000    0.0004   -0.0000   -0.0000   -0.0000   -0.0049    0.0000
       29 CR    10py        0.0004    0.0000    0.0015   -0.0000   -0.0000    0.0000    0.0003    0.0000
       30 CR    11py        0.0001    0.0000    0.0004   -0.0000   -0.0000    0.0000    0.0002    0.0000
       31 CR     2pz       -0.0000    0.0002   -0.0000   -0.0000    0.0000   -0.0000    0.0000   -0.0002
       32 CR     3pz        0.0000    0.0334   -0.0000   -0.0000   -0.0155   -0.0000    0.0000    0.0519
       33 CR     4pz       -0.0000   -0.0626    0.0000    0.0000   -0.2073    0.0000    0.0000    0.9382
       34 CR     5pz       -0.0000    0.0380   -0.0000   -0.0000   -0.0033   -0.0000    0.0000    0.2306
       35 CR     6pz       -0.0000    0.0053   -0.0000   -0.0000    0.0254    0.0000   -0.0000    0.0974
       36 CR     7pz       -0.0000   -0.0073    0.0000    0.0000    0.0011   -0.0000   -0.0000   -0.0465
       37 CR     8pz       -0.0000    0.0005    0.0000    0.0000   -0.0056   -0.0000    0.0000   -0.0474
       38 CR     9pz        0.0000   -0.0004    0.0000   -0.0000   -0.0023    0.0000    0.0000   -0.0140
       39 CR    10pz        0.0000   -0.0017    0.0000    0.0000   -0.0003    0.0000    0.0000   -0.0017
       40 CR    11pz        0.0000   -0.0004    0.0000    0.0000   -0.0000    0.0000    0.0000    0.0000
       41 CR     3d2-       0.8538    0.0000    0.4796   -0.0000    0.0000   -0.0000   -0.0413    0.0000
       42 CR     4d2-      -0.1482   -0.0000   -0.0787    0.0000   -0.0000    0.0000    0.0634   -0.0000
       43 CR     5d2-      -0.0027    0.0000    0.0161   -0.0000   -0.0000    0.0000    0.0111   -0.0000
       44 CR     6d2-      -0.0048   -0.0000   -0.0059    0.0000    0.0000    0.0000    0.0015   -0.0000
       45 CR     7d2-       0.0020    0.0000   -0.0037    0.0000    0.0000    0.0000    0.0003   -0.0000
       46 CR     8d2-       0.0036    0.0000    0.0020   -0.0000    0.0000   -0.0000   -0.0010   -0.0000
       47 CR     9d2-       0.0028    0.0000    0.0043   -0.0000    0.0000   -0.0000   -0.0014   -0.0000
       48 CR    10d2-       0.0007    0.0000    0.0010   -0.0000    0.0000   -0.0000   -0.0005   -0.0000
       49 CR     3d1-      -0.4891    0.0000    0.8441   -0.0000    0.0000   -0.0000   -0.0673    0.0000
       50 CR     4d1-       0.0851   -0.0000   -0.1389    0.0000   -0.0000    0.0000    0.1469   -0.0000
       51 CR     5d1-       0.0034    0.0000    0.0246   -0.0000   -0.0000    0.0000    0.0485   -0.0000
       52 CR     6d1-       0.0022   -0.0000   -0.0091    0.0000   -0.0000    0.0000    0.0141   -0.0000
       53 CR     7d1-      -0.0020   -0.0000   -0.0048    0.0000   -0.0000    0.0000    0.0045   -0.0000
       54 CR     8d1-      -0.0017    0.0000    0.0028   -0.0000    0.0000   -0.0000   -0.0057    0.0000
       55 CR     9d1-      -0.0009    0.0000    0.0063   -0.0000    0.0000   -0.0000   -0.0042    0.0000
       56 CR    10d1-      -0.0003    0.0000    0.0015   -0.0000   -0.0000   -0.0000   -0.0011    0.0000
       57 CR     3d0        0.0000    0.9683   -0.0000   -0.0000   -0.1464    0.0000   -0.0000    0.0201
       58 CR     4d0        0.0000   -0.1659    0.0000    0.0000    0.0762   -0.0000   -0.0000    0.0184
       59 CR     5d0       -0.0000    0.0247   -0.0000   -0.0000   -0.0032   -0.0000   -0.0000    0.0340
       60 CR     6d0       -0.0000   -0.0093    0.0000    0.0000   -0.0033   -0.0000    0.0000    0.0182
       61 CR     7d0       -0.0000   -0.0043    0.0000    0.0000   -0.0014   -0.0000    0.0000    0.0093
       62 CR     8d0       -0.0000    0.0030   -0.0000   -0.0000    0.0006    0.0000    0.0000   -0.0035
       63 CR     9d0       -0.0000    0.0065   -0.0000   -0.0000   -0.0011    0.0000   -0.0000   -0.0022
       64 CR    10d0       -0.0000    0.0016   -0.0000   -0.0000   -0.0005    0.0000   -0.0000   -0.0003
       65 CR     3d1+      -0.0000    0.0000    0.0000    0.8441    0.0000   -0.0673    0.0000   -0.0000
       66 CR     4d1+       0.0000   -0.0000   -0.0000   -0.1389   -0.0000    0.1469   -0.0000    0.0000
       67 CR     5d1+       0.0000    0.0000    0.0000    0.0246    0.0000    0.0485   -0.0000    0.0000
       68 CR     6d1+       0.0000   -0.0000   -0.0000   -0.0091   -0.0000    0.0141   -0.0000    0.0000
       69 CR     7d1+      -0.0000   -0.0000   -0.0000   -0.0048   -0.0000    0.0045   -0.0000    0.0000
       70 CR     8d1+      -0.0000    0.0000    0.0000    0.0028    0.0000   -0.0057    0.0000   -0.0000
       71 CR     9d1+      -0.0000    0.0000    0.0000    0.0063    0.0000   -0.0042    0.0000   -0.0000
       72 CR    10d1+      -0.0000    0.0000    0.0000    0.0015    0.0000   -0.0011    0.0000   -0.0000
       73 CR     3d2+      -0.0000   -0.0000   -0.0000   -0.4796    0.0000    0.0413   -0.0000    0.0000
       74 CR     4d2+       0.0000    0.0000    0.0000    0.0787   -0.0000   -0.0634    0.0000   -0.0000
       75 CR     5d2+       0.0000   -0.0000   -0.0000   -0.0161   -0.0000   -0.0111    0.0000   -0.0000
       76 CR     6d2+       0.0000    0.0000    0.0000    0.0059    0.0000   -0.0015    0.0000   -0.0000
       77 CR     7d2+      -0.0000    0.0000    0.0000    0.0037    0.0000   -0.0003    0.0000   -0.0000
       78 CR     8d2+      -0.0000   -0.0000   -0.0000   -0.0020    0.0000    0.0010   -0.0000    0.0000
       79 CR     9d2+      -0.0000   -0.0000   -0.0000   -0.0043   -0.0000    0.0014   -0.0000    0.0000
       80 CR    10d2+      -0.0000   -0.0000   -0.0000   -0.0010    0.0000    0.0005   -0.0000    0.0000
       81 CR     4f3-      -0.0000   -0.0000   -0.0000    0.0000    0.0000    0.0000    0.0000    0.0000
       82 CR     5f3-       0.0000   -0.0000   -0.0000    0.0000   -0.0000    0.0000    0.0000    0.0000
       83 CR     6f3-       0.0000   -0.0000    0.0000   -0.0000    0.0000    0.0000    0.0000   -0.0000
       84 CR     7f3-      -0.0000   -0.0000   -0.0000   -0.0000    0.0000    0.0000    0.0000   -0.0000
       85 CR     8f3-      -0.0000   -0.0000   -0.0000   -0.0000    0.0000    0.0000    0.0000   -0.0000
       86 CR     9f3-       0.0000   -0.0000   -0.0000   -0.0000    0.0000    0.0000   -0.0000   -0.0000
       87 CR     4f2-       0.0399    0.0000    0.0702   -0.0000    0.0000   -0.0000   -0.0236    0.0000
       88 CR     5f2-       0.0152    0.0000    0.0268   -0.0000    0.0000   -0.0000   -0.0173    0.0000
       89 CR     6f2-      -0.0048   -0.0000   -0.0102    0.0000   -0.0000   -0.0000   -0.0019    0.0000
       90 CR     7f2-      -0.0017   -0.0000   -0.0016    0.0000   -0.0000    0.0000    0.0009   -0.0000
       91 CR     8f2-       0.0001    0.0000    0.0012   -0.0000   -0.0000   -0.0000   -0.0000   -0.0000
       92 CR     9f2-       0.0004    0.0000    0.0006   -0.0000   -0.0000   -0.0000   -0.0005    0.0000
       93 CR     4f1-      -0.0147    0.0000    0.0123   -0.0000    0.0000   -0.0000   -0.0147    0.0000
       94 CR     5f1-      -0.0060   -0.0000    0.0047   -0.0000    0.0000   -0.0000   -0.0178    0.0000
       95 CR     6f1-       0.0010   -0.0000   -0.0004    0.0000    0.0000   -0.0000   -0.0087    0.0000
       96 CR     7f1-       0.0007   -0.0000    0.0000   -0.0000    0.0000   -0.0000   -0.0020    0.0000
       97 CR     8f1-       0.0002    0.0000   -0.0001    0.0000   -0.0000    0.0000    0.0001    0.0000
       98 CR     9f1-      -0.0001   -0.0000   -0.0002    0.0000   -0.0000    0.0000    0.0004    0.0000
       99 CR     4f0        0.0000   -0.0184    0.0000    0.0000    0.0611   -0.0000    0.0000   -0.0084
      100 CR     5f0        0.0000    0.0001   -0.0000   -0.0000    0.0587    0.0000   -0.0000   -0.0143
      101 CR     6f0        0.0000    0.0088   -0.0000   -0.0000    0.0118    0.0000   -0.0000   -0.0105
      102 CR     7f0       -0.0000   -0.0010    0.0000    0.0000   -0.0046   -0.0000   -0.0000   -0.0046
      103 CR     8f0       -0.0000   -0.0020    0.0000    0.0000   -0.0022   -0.0000   -0.0000   -0.0008
      104 CR     9f0       -0.0000   -0.0006   -0.0000    0.0000   -0.0000    0.0000   -0.0000    0.0001
      105 CR     4f1+      -0.0000    0.0000    0.0000    0.0123    0.0000   -0.0147    0.0000    0.0000
      106 CR     5f1+      -0.0000    0.0000    0.0000    0.0047    0.0000   -0.0178    0.0000    0.0000
      107 CR     6f1+       0.0000    0.0000   -0.0000   -0.0004    0.0000   -0.0087    0.0000    0.0000
      108 CR     7f1+       0.0000   -0.0000    0.0000    0.0000   -0.0000   -0.0020    0.0000    0.0000
      109 CR     8f1+       0.0000   -0.0000   -0.0000   -0.0001   -0.0000    0.0001   -0.0000    0.0000
      110 CR     9f1+      -0.0000   -0.0000   -0.0000   -0.0002   -0.0000    0.0004   -0.0000    0.0000
      111 CR     4f2+      -0.0000   -0.0000   -0.0000   -0.0702    0.0000    0.0236   -0.0000    0.0000
      112 CR     5f2+      -0.0000   -0.0000   -0.0000   -0.0268    0.0000    0.0173   -0.0000    0.0000
      113 CR     6f2+       0.0000    0.0000    0.0000    0.0102    0.0000    0.0019   -0.0000    0.0000
      114 CR     7f2+       0.0000    0.0000    0.0000    0.0016   -0.0000   -0.0009    0.0000    0.0000
      115 CR     8f2+      -0.0000   -0.0000   -0.0000   -0.0012   -0.0000    0.0000   -0.0000    0.0000
      116 CR     9f2+      -0.0000   -0.0000   -0.0000   -0.0006    0.0000    0.0005   -0.0000    0.0000
      117 CR     4f3+      -0.0000    0.0350   -0.0000   -0.0000    0.0270    0.0000   -0.0000    0.0219
      118 CR     5f3+       0.0000    0.0162   -0.0000   -0.0000    0.0301    0.0000   -0.0000    0.0245
      119 CR     6f3+       0.0000   -0.0036    0.0000    0.0000    0.0076    0.0000   -0.0000    0.0093
      120 CR     7f3+       0.0000   -0.0018    0.0000    0.0000   -0.0026    0.0000   -0.0000    0.0014
      121 CR     8f3+      -0.0000    0.0001    0.0000   -0.0000   -0.0015    0.0000   -0.0000    0.0002
      122 CR     9f3+      -0.0000    0.0005    0.0000   -0.0000   -0.0001    0.0000    0.0000    0.0005
      123 CR     5g4-      -0.0020    0.0000    0.0122   -0.0000    0.0000   -0.0000   -0.0102    0.0000
      124 CR     6g4-      -0.0013   -0.0000    0.0064   -0.0000    0.0000   -0.0000   -0.0147    0.0000
      125 CR     7g4-      -0.0001   -0.0000   -0.0020    0.0000    0.0000   -0.0000   -0.0081    0.0000
      126 CR     8g4-       0.0002   -0.0000   -0.0019    0.0000    0.0000   -0.0000   -0.0022    0.0000
      127 CR     5g3-       0.0000    0.0000    0.0000   -0.0000    0.0000   -0.0000   -0.0000    0.0000
      128 CR     6g3-      -0.0000   -0.0000    0.0000   -0.0000   -0.0000   -0.0000   -0.0000   -0.0000
      129 CR     7g3-      -0.0000   -0.0000   -0.0000   -0.0000    0.0000   -0.0000   -0.0000    0.0000
      130 CR     8g3-       0.0000   -0.0000   -0.0000    0.0000   -0.0000   -0.0000   -0.0000   -0.0000
      131 CR     5g2-      -0.0030   -0.0000   -0.0123    0.0000   -0.0000    0.0000    0.0015   -0.0000
      132 CR     6g2-      -0.0017   -0.0000   -0.0074    0.0000   -0.0000   -0.0000   -0.0000   -0.0000
      133 CR     7g2-      -0.0002    0.0000    0.0008   -0.0000    0.0000   -0.0000   -0.0015    0.0000
      134 CR     8g2-       0.0002    0.0000    0.0016   -0.0000    0.0000   -0.0000   -0.0013    0.0000
      135 CR     5g1-       0.0103   -0.0000   -0.0002    0.0000    0.0000   -0.0000   -0.0108    0.0000
      136 CR     6g1-       0.0063   -0.0000   -0.0021    0.0000    0.0000   -0.0000   -0.0178    0.0000
      137 CR     7g1-      -0.0001   -0.0000   -0.0032    0.0000    0.0000   -0.0000   -0.0110    0.0000
      138 CR     8g1-      -0.0011   -0.0000   -0.0011    0.0000    0.0000   -0.0000   -0.0036    0.0000
      139 CR     5g0        0.0000   -0.0235    0.0000    0.0000    0.0089    0.0000   -0.0000   -0.0153
      140 CR     6g0       -0.0000   -0.0137    0.0000    0.0000    0.0096    0.0000   -0.0000   -0.0243
      141 CR     7g0       -0.0000    0.0017    0.0000   -0.0000    0.0034    0.0000   -0.0000   -0.0146
      142 CR     8g0       -0.0000    0.0028    0.0000   -0.0000   -0.0001    0.0000    0.0000   -0.0043
      143 CR     5g1+       0.0000    0.0000   -0.0000   -0.0002   -0.0000   -0.0108    0.0000   -0.0000
      144 CR     6g1+       0.0000   -0.0000   -0.0000   -0.0021   -0.0000   -0.0178    0.0000   -0.0000
      145 CR     7g1+      -0.0000   -0.0000   -0.0000   -0.0032   -0.0000   -0.0110    0.0000   -0.0000
      146 CR     8g1+      -0.0000   -0.0000   -0.0000   -0.0011    0.0000   -0.0036    0.0000   -0.0000
      147 CR     5g2+       0.0000    0.0000    0.0000    0.0123   -0.0000   -0.0015    0.0000   -0.0000
      148 CR     6g2+       0.0000    0.0000    0.0000    0.0074    0.0000    0.0000   -0.0000   -0.0000
      149 CR     7g2+       0.0000   -0.0000   -0.0000   -0.0008    0.0000    0.0015   -0.0000   -0.0000
      150 CR     8g2+      -0.0000   -0.0000   -0.0000   -0.0016    0.0000    0.0013   -0.0000   -0.0000
      151 CR     5g3+      -0.0000   -0.0066    0.0000    0.0000   -0.0088   -0.0000   -0.0000   -0.0104
      152 CR     6g3+      -0.0000   -0.0045    0.0000    0.0000   -0.0113   -0.0000   -0.0000   -0.0157
      153 CR     7g3+      -0.0000    0.0005    0.0000    0.0000   -0.0035   -0.0000   -0.0000   -0.0083
      154 CR     8g3+      -0.0000    0.0012   -0.0000   -0.0000    0.0016   -0.0000   -0.0000   -0.0015
      155 CR     5g4+      -0.0000    0.0000    0.0000    0.0122    0.0000   -0.0102    0.0000    0.0000
      156 CR     6g4+      -0.0000    0.0000    0.0000    0.0064    0.0000   -0.0147    0.0000    0.0000
      157 CR     7g4+      -0.0000   -0.0000   -0.0000   -0.0020    0.0000   -0.0081    0.0000    0.0000
      158 CR     8g4+       0.0000   -0.0000   -0.0000   -0.0019   -0.0000   -0.0022    0.0000    0.0000
      159 CR     6h5-      -0.0093    0.0000   -0.0079    0.0000   -0.0000    0.0000    0.0017   -0.0000
      160 CR     7h5-      -0.0058   -0.0000   -0.0050    0.0000   -0.0000    0.0000    0.0014   -0.0000
      161 CR     6h4-       0.0034   -0.0000   -0.0130    0.0000   -0.0000    0.0000    0.0053   -0.0000
      162 CR     7h4-       0.0021   -0.0000   -0.0077    0.0000   -0.0000    0.0000    0.0059   -0.0000
      163 CR     6h3-      -0.0000    0.0000   -0.0000    0.0000   -0.0000   -0.0000    0.0000   -0.0000
      164 CR     7h3-       0.0000   -0.0000   -0.0000    0.0000    0.0000    0.0000    0.0000    0.0000
      165 CR     6h2-      -0.0072   -0.0000   -0.0071    0.0000   -0.0000    0.0000    0.0021   -0.0000
      166 CR     7h2-      -0.0046   -0.0000   -0.0045    0.0000   -0.0000    0.0000    0.0022   -0.0000
      167 CR     6h1-       0.0061   -0.0000   -0.0174    0.0000   -0.0000    0.0000    0.0030   -0.0000
      168 CR     7h1-       0.0039   -0.0000   -0.0111    0.0000   -0.0000    0.0000    0.0019   -0.0000
      169 CR     6h0        0.0000   -0.0230    0.0000    0.0000    0.0061   -0.0000    0.0000   -0.0022
      170 CR     7h0        0.0000   -0.0144    0.0000    0.0000    0.0050   -0.0000    0.0000   -0.0027
      171 CR     6h1+       0.0000   -0.0000   -0.0000   -0.0174   -0.0000    0.0030   -0.0000    0.0000
      172 CR     7h1+       0.0000   -0.0000   -0.0000   -0.0111    0.0000    0.0019   -0.0000    0.0000
      173 CR     6h2+       0.0000    0.0000    0.0000    0.0071   -0.0000   -0.0021    0.0000   -0.0000
      174 CR     7h2+       0.0000    0.0000    0.0000    0.0045   -0.0000   -0.0022    0.0000   -0.0000
      175 CR     6h3+       0.0000   -0.0047    0.0000    0.0000    0.0032   -0.0000    0.0000    0.0034
      176 CR     7h3+       0.0000   -0.0030    0.0000    0.0000    0.0032    0.0000    0.0000    0.0049
      177 CR     6h4+       0.0000   -0.0000   -0.0000   -0.0130   -0.0000    0.0053   -0.0000   -0.0000
      178 CR     7h4+       0.0000   -0.0000   -0.0000   -0.0077   -0.0000    0.0059   -0.0000   -0.0000
      179 CR     6h5+       0.0000    0.0000    0.0000    0.0079   -0.0000   -0.0017    0.0000   -0.0000
      180 CR     7h5+       0.0000    0.0000    0.0000    0.0050   -0.0000   -0.0014    0.0000   -0.0000
--


++    Molecular charges:
      ------------------

      Mulliken charges per centre and basis function type
      ---------------------------------------------------

                CR    
      1s       2.0000
      2s       2.0000
      2px      2.0000
      2pz      2.0000
      2py      2.0000
      3s       1.9830
      3px      1.9620
      3pz      1.9650
      3py      1.9620
      4s       0.0035
      3d2+     0.0036
      3d1+     0.0090
      3d0      0.0040
      3d1-     0.0090
      3d2-     0.0036
      4px      0.0098
      4pz      0.0115
      4py      0.0098
      5s       0.0088
      4d2+     0.0002
      4d1+     0.0006
      4d0      0.0002
      4d1-     0.0006
      4d2-     0.0002
      5px      0.0130
      5pz      0.0169
      5py      0.0130
      6s       0.0020
      4f3+     0.0008
      4f2+     0.0003
      4f1+     0.0001
      4f0      0.0016
      4f1-     0.0001
      4f2-     0.0003
      4f3-     0.0000
      5d2+     0.0001
      5d1+     0.0002
      5d0      0.0001
      5d1-     0.0002
      5d2-     0.0001
      6px      0.0001
      6pz      0.0002
      6py      0.0001
      7s       0.0000
      5f3+     0.0000
      5f2+     0.0000
      5f1+     0.0000
      5f0      0.0000
      5f1-     0.0000
      5f2-     0.0000
      5f3-     0.0000
      6d2+     0.0000
      6d1+     0.0001
      6d0      0.0001
      6d1-     0.0001
      6d2-     0.0000
      7px      0.0001
      7pz      0.0001
      7py      0.0001
      5g4+     0.0002
      5g3+     0.0005
      5g2+     0.0000
      5g1+     0.0003
      5g0      0.0009
      5g1-     0.0003
      5g2-     0.0000
      5g3-     0.0000
      5g4-     0.0002
      6f3+     0.0001
      6f2+     0.0000
      6f1+     0.0000
      6f0      0.0001
      6f1-     0.0000
      6f2-     0.0000
      6f3-     0.0000
      6g4+     0.0000
      6g3+     0.0000
      6g2+     0.0000
      6g1+     0.0000
      6g0      0.0001
      6g1-     0.0000
      6g2-     0.0000
      6g3-     0.0000
      6g4-     0.0000
      6h5+     0.0000
      6h4+     0.0001
      6h3+     0.0001
      6h2+     0.0000
      6h1+     0.0000
      6h0      0.0000
      6h1-     0.0000
      6h2-     0.0000
      6h3-     0.0000
      6h4-     0.0001
      6h5-     0.0000
      7d2+     0.0000
      7d1+     0.0000
      7d0      0.0000
      7d1-     0.0000
      7d2-     0.0000
      7f3+     0.0000
      7f2+     0.0000
      7f1+     0.0000
      7f0      0.0000
      7f1-     0.0000
      7f2-     0.0000
      7f3-     0.0000
      7g4+     0.0000
      7g3+     0.0000
      7g2+     0.0000
      7g1+     0.0000
      7g0      0.0001
      7g1-     0.0000
      7g2-     0.0000
      7g3-     0.0000
      7g4-     0.0000
      7h5+     0.0000
      7h4+     0.0000
      7h3+     0.0000
      7h2+     0.0000
      7h1+     0.0000
      7h0      0.0000
      7h1-     0.0000
      7h2-     0.0000
      7h3-     0.0000
      7h4-     0.0000
      7h5-     0.0000
      8s       0.0001
      8px      0.0000
      8pz      0.0000
      8py      0.0000
      8d2+     0.0000
      8d1+     0.0000
      8d0      0.0000
      8d1-     0.0000
      8d2-     0.0000
      8f3+     0.0000
      8f2+     0.0000
      8f1+     0.0000
      8f0      0.0000
      8f1-     0.0000
      8f2-     0.0000
      8f3-     0.0000
      8g4+     0.0000
      8g3+     0.0000
      8g2+     0.0000
      8g1+     0.0000
      8g0      0.0000
      8g1-     0.0000
      8g2-     0.0000
      8g3-     0.0000
      8g4-     0.0000
      9s       0.0000
      9px      0.0000
      9pz      0.0000
      9py      0.0000
      9d2+     0.0000
      9d1+     0.0000
      9d0      0.0000
      9d1-     0.0000
      9d2-     0.0000
      9f3+     0.0000
      9f2+     0.0000
      9f1+     0.0000
      9f0      0.0000
      9f1-     0.0000
      9f2-     0.0000
      9f3-     0.0000
     10s       0.0000
     10px      0.0000
     10pz      0.0000
     10py      0.0000
     10d2+     0.0000
     10d1+     0.0000
     10d0      0.0000
     10d1-     0.0000
     10d2-     0.0000
     11px      0.0000
     11pz      0.0000
     11py      0.0000
      Total   18.0000

      N-E      6.0000

      Total electronic charge=   18.000000

      Total            charge=    6.000000
--

 Sorry, Molden does not know how to handle
 functions with angular momentum larger than g

++    Static properties:
      ------------------


      LoProp Charges per center


                   CR    
      Nuclear     24.0000
      Electronic -18.0000

      Total        6.0000
--


++    Molecular properties:
      ---------------------

      Charge (e):
                      =    6.0000
      Dipole Moment (Debye):
      Origin of the operator (Ang)=    0.0000    0.0000    0.0000
                   X=  3.0989E-07               Y=  2.1752E-14               Z= -4.1109E-01           Total=  4.1109E-01
      Center of Charge (Ang)
                     X=    0.00000001               Y=    0.00000000               Z=   -0.01426452
      Quadrupole Moment (Debye*Ang):
      Origin of the operator (Ang)=    0.0000    0.0000    0.0000
                  XX= -3.5832E+00              XY= -1.3222E-14              XZ= -5.3809E-08              YY= -3.5832E+00
                  YZ=  4.5269E-15              ZZ= -3.4573E+00
      In traceless form (Debye*Ang)
                  XX= -6.2960E-02              XY= -1.9833E-14              XZ= -8.0714E-08              YY= -6.2960E-02
                  YZ=  6.7903E-15              ZZ=  1.2592E-01
--

 Sorry, Molden does not know how to handle
 functions with angular momentum larger than g
 ###############################################################################
 ###############################################################################
 ###                                                                         ###
 ###                                                                         ###
 ###    WARNING: RunFile label nBas                                          ###
 ###    was used       62 times                                              ###
 ###                                                                         ###
 ###                                                                         ###
 ###############################################################################
 ###############################################################################
Note: The following floating-point exceptions are signalling: IEEE_UNDERFLOW_FLAG IEEE_DENORMAL
--- Stop Module: scf at Fri Jan 10 02:22:53 2025 /rc=_RC_ALL_IS_WELL_ ---
*** files: chromium_so_cf.LprOrb chromium_so_cf.ScfOrb xmldump
    saved to directory /home4/s4752295/Internship/Initial_simulations/Point_charge_model/1_electron/active_space_9_non_rel/Cr/varying_bond_length
--- Module scf spent 8 seconds ---

*** symbolic link created: INPORB -> chromium_so_cf.ScfOrb
--- Start Module: rasscf at Fri Jan 10 02:22:53 2025 ---

()()()()()()()()()()()()()()()()()()()()()()()()()()()()()()()()()()()()()()()()()()()()()()()()()()

                                              &RASSCF

                                   only a single process is used
                       available to each process: 4.1 GB of memory, 1 thread?
                                            pid: 1092937
()()()()()()()()()()()()()()()()()()()()()()()()()()()()()()()()()()()()()()()()()()()()()()()()()()


      Header of the ONEINT file:
      --------------------------
      
      Integrals generated by seward 4.2.0  , Fri Jan 10 02:22:36 2025


      OrdInt status: non-squared


      Cartesian coordinates in Angstrom:
      -----------------------------------------------------
      No.  Label        X            Y            Z        
      -----------------------------------------------------
       1   CR         0.00000000   0.00000000   0.00000000
      -----------------------------------------------------
      Nuclear repulsion energy =  -63.49206909

++    Wave function specifications:
      -----------------------------

      Number of closed shell electrons          18
      Number of electrons in active shells       1
      Max number of holes in RAS1 space          0
      Max nr of electrons in RAS3 space          0
      Number of inactive orbitals                9
      Number of active orbitals                  9
      Number of secondary orbitals             162
      Spin quantum number                      0.5
      State symmetry                             1
--

++    Orbital specifications:
      -----------------------

      Symmetry species                           1
                                                 a
      Frozen orbitals                            0
      Inactive orbitals                          9
      Active orbitals                            9
      RAS1 orbitals                              0
      RAS2 orbitals                              9
      RAS3 orbitals                              0
      Secondary orbitals                       162
      Deleted orbitals                           0
      Number of basis functions                180
--

++    CI expansion specifications:
      ----------------------------

      Number of CSFs                             9
      Number of determinants                     9
      Number of root(s) required                 9
      Root chosen for geometry opt.              9
      CI roots used                              1     2     3     4     5     6     7     8     9
      weights                                0.111 0.111 0.111 0.111 0.111 0.111 0.111 0.111 0.111
      highest root included in the CI            9
      max. size of the explicit Hamiltonian      9
--

++    Optimization specifications:
      ----------------------------

      RASSCF algorithm: Conventional
      Maximum number of macro iterations       200
      Maximum number of SX iterations          100
      Threshold for RASSCF energy            0.100E-07
      Threshold for max MO rotation          0.100E+00
      Threshold for max BLB element          0.100E-03
      Level shift parameter                  0.500E+00
      Make Quasi-Newton update
--

      The MO-coefficients are taken from the file:
      INPORB                                                                                                                          
      Title: SCF orbitals                                                                  

      Total molecular charge    5.00

      ************************************************************************************************************************
      *                                                                                                                      *
      *                                            Wave function control section                                             *
      *                                                                                                                      *
      ************************************************************************************************************************


                                         RASSCF iterations: Energy and convergence statistics
                                         ----------------------------------------------------

      Iter CI   SX   CI       RASSCF       Energy    max ROT     max BLB   max BLB  Level Ln srch  Step   QN   Walltime
          iter iter root      energy       change     param      element    value   shift minimum  type update hh:mm:ss
 Nr of preliminary CI iterations:   1
      Total energies have been shifted. Add                -1000.00 au
        1   1    6    0   -56.89547411    0.00E+00   0.10E-01    6  68 1  0.96E-01*  0.39   0.00    SX    NO    0:00:03
        2   1    6    0   -56.90711231   -0.12E-01* -0.91E-02    8 127 1 -0.17E-01*  0.37   0.00    SX    NO    0:00:01
        3   1    5    0   -56.90752993   -0.42E-03*  0.19E-02    7  16 1 -0.28E-02*  0.38   0.00    SX    NO    0:00:01
        4   1    5    0   -56.90755649   -0.27E-04*  0.11E-02    5 180 1  0.59E-03*  0.38   0.00    SX    NO    0:00:01
        5   1    5    0   -56.90755925   -0.28E-05*  0.66E-03    7  16 1 -0.19E-03*  0.38   1.61    LS   YES    0:00:01
        6   1    5    0   -56.90755971   -0.46E-06*  0.67E-03    5 180 1 -0.43E-03*  0.38   1.00    QN   YES    0:00:01
        7   1    4    0   -56.90756002   -0.31E-06*  0.76E-03    7  16 1  0.74E-04   0.38   1.60    QN   YES    0:00:01
        8   1    4    0   -56.90756014   -0.12E-06*  0.18E-03    4 178 1  0.57E-04   0.38   1.16    QN   YES    0:00:01
        9   1    4    0   -56.90756015   -0.81E-08  -0.88E-04    5 180 1  0.13E-04   0.38   1.36    QN   YES    0:00:01
      Convergence after  9 iterations
       10   1    4    0   -56.90756015   -0.17E-08  -0.88E-04    4 169 1  0.37E-05   0.38   1.36    QN   YES    0:00:01

      ************************************************************************************************************************
                                                      Wave function printout:
                       occupation of active orbitals, and spin coupling of open shells (u,d: Spin up or down)
      ************************************************************************************************************************

      Note: transformation to natural orbitals
      has been made, which may change the order of the CSFs.

      printout of CI-coefficients larger than  0.05 for root  1
      energy=   -1057.147223
      conf/sym  111111111     Coeff  Weight
             1  u00000000   0.98346 0.96718
             4  000u00000  -0.06462 0.00418
             5  0000u0000   0.07024 0.00493
             6  00000u000  -0.05943 0.00353
             7  000000u00   0.10848 0.01177
             8  0000000u0  -0.08577 0.00736

      printout of CI-coefficients larger than  0.05 for root  2
      energy=   -1057.147223
      conf/sym  111111111     Coeff  Weight
             2  0u0000000   0.86403 0.74655
             4  000u00000   0.50245 0.25246

      printout of CI-coefficients larger than  0.05 for root  3
      energy=   -1057.024437
      conf/sym  111111111     Coeff  Weight
             3  00u000000   0.68218 0.46537
             6  00000u000   0.47514 0.22575
             7  000000u00  -0.32593 0.10623
             8  0000000u0  -0.44665 0.19949

      printout of CI-coefficients larger than  0.05 for root  4
      energy=   -1057.018158
      conf/sym  111111111     Coeff  Weight
             2  0u0000000  -0.45301 0.20521
             4  000u00000   0.76928 0.59179
             5  0000u0000  -0.12787 0.01635
             7  000000u00   0.35383 0.12520
             8  0000000u0  -0.24395 0.05951

      printout of CI-coefficients larger than  0.05 for root  5
      energy=   -1057.018158
      conf/sym  111111111     Coeff  Weight
             1  u00000000   0.08350 0.00697
             2  0u0000000  -0.20677 0.04275
             3  00u000000  -0.05533 0.00306
             4  000u00000   0.36058 0.13002
             5  0000u0000   0.58732 0.34494
             7  000000u00  -0.58248 0.33928
             8  0000000u0   0.36460 0.13293

      printout of CI-coefficients larger than  0.05 for root  6
      energy=   -1056.819978
      conf/sym  111111111     Coeff  Weight
             3  00u000000  -0.58482 0.34201
             6  00000u000   0.80602 0.64966
             8  0000000u0  -0.05983 0.00358

      printout of CI-coefficients larger than  0.05 for root  7
      energy=   -1056.677337
      conf/sym  111111111     Coeff  Weight
             1  u00000000  -0.13364 0.01786
             2  0u0000000   0.05883 0.00346
             3  00u000000   0.15179 0.02304
             4  000u00000  -0.13762 0.01894
             5  0000u0000   0.76817 0.59008
             7  000000u00   0.58131 0.33792
             8  0000000u0  -0.08497 0.00722

      printout of CI-coefficients larger than  0.05 for root  8
      energy=   -1056.677337
      conf/sym  111111111     Coeff  Weight
             1  u00000000   0.07831 0.00613
             3  00u000000   0.40553 0.16445
             5  0000u0000  -0.20131 0.04052
             6  00000u000   0.34523 0.11918
             7  000000u00   0.27910 0.07790
             8  0000000u0   0.76796 0.58976

      printout of CI-coefficients larger than  0.05 for root  9
      energy=   -1056.638192
      conf/sym  111111111     Coeff  Weight
             9  00000000u   1.00000 1.00000

      Natural orbitals and occupation numbers for root  1
      sym 1:   1.000000   0.000000   0.000000  -0.000000  -0.000000   0.000000   0.000000   0.000000   0.000000

      Natural orbitals and occupation numbers for root  2
      sym 1:   0.000000   1.000000  -0.000000   0.000000  -0.000000  -0.000000  -0.000000   0.000000  -0.000000

      Natural orbitals and occupation numbers for root  3
      sym 1:   0.000000  -0.000000   1.000000  -0.000000  -0.000000  -0.000000  -0.000000  -0.000000   0.000000

      Natural orbitals and occupation numbers for root  4
      sym 1:  -0.000000   0.000000  -0.000000   1.000000  -0.000000   0.000000  -0.000000   0.000000   0.000000

      Natural orbitals and occupation numbers for root  5
      sym 1:   0.000000  -0.000000  -0.000000   0.000000   1.000000  -0.000000  -0.000000   0.000000   0.000000

      Natural orbitals and occupation numbers for root  6
      sym 1:  -0.000000   0.000000   0.000000   0.000000  -0.000000   1.000000  -0.000000  -0.000000  -0.000000

      Natural orbitals and occupation numbers for root  7
      sym 1:  -0.000000   0.000000   0.000000  -0.000000   1.000000  -0.000000   0.000000   0.000000   0.000000

      Natural orbitals and occupation numbers for root  8
      sym 1:  -0.000000  -0.000000   0.000000   0.000000   0.000000  -0.000000   0.000000   1.000000   0.000000

      Natural orbitals and occupation numbers for root  9
      sym 1:  -0.000000  -0.000000   0.000000  -0.000000  -0.000000   0.000000   0.000000  -0.000000   1.000000

      ************************************************************************************************************************
      *                                                                                                                      *
      *                                                    Final results                                                     *
      *                                                                                                                      *
      ************************************************************************************************************************


++    Wave function specifications:
      -----------------------------

      Number of closed shell electrons          18
      Number of electrons in active shells       1
      Max number of holes in RAS1 space          0
      Max nr of electrons in RAS3 space          0
      Number of inactive orbitals                9
      Number of active orbitals                  9
      Number of secondary orbitals             162
      Spin quantum number                      0.5
      State symmetry                             1
--

++    Orbital specifications:
      -----------------------

      Symmetry species                           1
                                                 a
      Frozen orbitals                            0
      Inactive orbitals                          9
      Active orbitals                            9
      RAS1 orbitals                              0
      RAS2 orbitals                              9
      RAS3 orbitals                              0
      Secondary orbitals                       162
      Deleted orbitals                           0
      Number of basis functions                180
--

++    CI expansion specifications:
      ----------------------------

      Number of CSFs                             9
      Number of determinants                     9
      Number of root(s) required                 9
      CI roots used                              1     2     3     4     5     6     7     8     9
      weights                                0.111 0.111 0.111 0.111 0.111 0.111 0.111 0.111 0.111
      highest root included in the CI            9
      Root passed to geometry opt.               9
--

++    Final optimization conditions:
      ------------------------------

      Average CI energy                           -1056.90756015
      RASSCF energy for state  9                  -1056.63819159
      Super-CI energy                                -0.00000000
      RASSCF energy change                           -0.00000000
      Max change in MO coefficients              -0.771E-04
      Max non-diagonal density matrix element    -0.883E-04
      Maximum BLB matrix element                  0.367E-05
      (orbital pair   4, 169 in symmetry   1)
      Norm of electronic gradient            0.357E+00
--


      Final state energy(ies):
      ------------------------

::    RASSCF root number  1 Total energy:  -1057.14722273
::    RASSCF root number  2 Total energy:  -1057.14722270
::    RASSCF root number  3 Total energy:  -1057.02443742
::    RASSCF root number  4 Total energy:  -1057.01815763
::    RASSCF root number  5 Total energy:  -1057.01815758
::    RASSCF root number  6 Total energy:  -1056.81997784
::    RASSCF root number  7 Total energy:  -1056.67733695
::    RASSCF root number  8 Total energy:  -1056.67733692
::    RASSCF root number  9 Total energy:  -1056.63819159

++    Molecular orbitals:
      -------------------

      Pseudonatural active orbitals and approximate occupation numbers




      Molecular orbitals for symmetry species 1: a  


      Orbital                 1         2         3         4         5         6         7         8         9        10
      Energy          -223.0953  -27.7374  -23.3666  -23.3666  -23.3621   -4.0970   -2.7688   -2.7688   -2.6761    0.0000
      Occ. No.           2.0000    2.0000    2.0000    2.0000    2.0000    2.0000    2.0000    2.0000    2.0000    0.1111

     1 CR     1s         1.0000   -0.0001   -0.0000    0.0000   -0.0000    0.0001   -0.0000    0.0000    0.0000    0.0000
     2 CR     2s         0.0001    1.0000    0.0000   -0.0000   -0.0020    0.0020    0.0000    0.0000   -0.0004    0.0000
     3 CR     3s        -0.0000   -0.0020   -0.0000    0.0000    0.0004    0.9956    0.0000   -0.0000   -0.0482   -0.0009
     4 CR     4s         0.0000    0.0001    0.0000   -0.0000   -0.0001   -0.0338    0.0000   -0.0000    0.0075   -0.0311
     5 CR     5s        -0.0000   -0.0004   -0.0000    0.0000    0.0001    0.0538   -0.0000   -0.0000   -0.0126    0.0064
     6 CR     6s         0.0000    0.0003    0.0000   -0.0000   -0.0001   -0.0260   -0.0000   -0.0000    0.0060    0.0027
[...]
         1    5       5.45322896E-05  2.64153213E+04  2.13143791E-06  9.16438148E-08  2.64153213E+04
         1    9       4.12050260E-05  2.59032843E+03  3.71109562E-07  1.94631712E+04  2.20534997E+04
         1   11       2.06813303E-04  7.11596155E+05  5.74179129E-05  9.77199097E-08  7.11596155E+05
         1   13       2.76574063E-02  1.48678233E+08  3.73542790E-03  4.75246690E+07  1.96202901E+08
         1   15       2.09581355E-02  3.73542454E-03  1.48677987E+08  7.97375851E-03  1.48677987E+08
         1   17       7.16807054E-03  5.96760869E+07  4.81522409E-03  5.85666159E-06  5.96760869E+07
         2    6       5.45322896E-05  2.64153213E+04  2.13143791E-06  9.16438148E-08  2.64153213E+04
         2   10       4.12050260E-05  2.59032843E+03  3.71109562E-07  1.94631712E+04  2.20534997E+04
         2   12       2.06813303E-04  7.11596155E+05  5.74179129E-05  9.77199097E-08  7.11596155E+05
         2   14       2.76574063E-02  1.48678233E+08  3.73542790E-03  4.75246690E+07  1.96202901E+08
         2   16       2.09581355E-02  3.73542454E-03  1.48677987E+08  7.97375851E-03  1.48677987E+08
         2   18       7.16807054E-03  5.96760869E+07  4.81522409E-03  5.85666159E-06  5.96760869E+07
         3    5       5.45321944E-05  2.13143339E-06  2.64152647E+04  4.02870566E-18  2.64152647E+04
         3    7       4.12050972E-05  2.59039053E+03  3.71108825E-07  1.94631213E+04  2.20535118E+04
         3   11       2.06812121E-04  5.74182051E-05  7.11591981E+05  3.90735676E-16  7.11591981E+05
         3   13       2.09581618E-02  3.73542130E-03  1.48678140E+08  7.97375559E-03  1.48678140E+08
         3   15       2.76573888E-02  1.48678176E+08  3.73542148E-03  4.75246043E+07  1.96202781E+08
         3   17       7.16806229E-03  4.81523072E-03  5.96760125E+07  1.87984657E-15  5.96760125E+07
         4    6       5.45321944E-05  2.13143339E-06  2.64152647E+04  4.02870566E-18  2.64152647E+04
         4    8       4.12050972E-05  2.59039053E+03  3.71108825E-07  1.94631213E+04  2.20535118E+04
         4   12       2.06812121E-04  5.74182051E-05  7.11591981E+05  3.90735676E-16  7.11591981E+05
         4   14       2.09581618E-02  3.73542130E-03  1.48678140E+08  7.97375559E-03  1.48678140E+08
         4   16       2.76573888E-02  1.48678176E+08  3.73542148E-03  4.75246043E+07  1.96202781E+08
         4   18       7.16806229E-03  4.81523072E-03  5.96760125E+07  1.87984657E-15  5.96760125E+07
         5   11       6.24130513E-04  6.90025091E-05  3.33473531E-15  8.38300523E+05  8.38300523E+05
         5   13       3.09392267E-02  1.19764812E+08  1.88789647E-03  4.91731450E-04  1.19764812E+08
         5   15       3.09390924E-02  1.88790957E-03  1.19764312E+08  1.93352246E-15  1.19764312E+08
         5   17       7.01024848E-03  4.54193854E-04  4.90748521E-16  3.36024073E+07  3.36024073E+07
         6   12       6.24130513E-04  6.90025091E-05  3.33473531E-15  8.38300523E+05  8.38300523E+05
         6   14       3.09392267E-02  1.19764812E+08  1.88789647E-03  4.91731450E-04  1.19764812E+08
         6   16       3.09390924E-02  1.88790957E-03  1.19764312E+08  1.93352246E-15  1.19764312E+08
         6   18       7.01024848E-03  4.54193854E-04  4.90748521E-16  3.36024073E+07  3.36024073E+07
         7   11       7.76105501E-03  8.73532273E-05  9.79374722E+06  2.71965147E-17  9.79374722E+06
         7   13       5.48606115E-03  1.98176238E-05  2.04749055E+07  3.03579724E-03  2.04749055E+07
         7   15       2.22929480E-02  2.04749148E+07  1.98158824E-05  6.27261411E+07  8.32010559E+07
         7   17       1.20035964E-02  4.96639729E-04  5.56814229E+07  1.45324355E-14  5.56814229E+07
         8   12       7.76105501E-03  8.73532273E-05  9.79374722E+06  2.71965147E-17  9.79374722E+06
         8   14       5.48606115E-03  1.98176238E-05  2.04749055E+07  3.03579724E-03  2.04749055E+07
         8   16       2.22929480E-02  2.04749148E+07  1.98158824E-05  6.27261411E+07  8.32010559E+07
         8   18       1.20035964E-02  4.96639729E-04  5.56814229E+07  1.45324355E-14  5.56814229E+07
         9   11       7.76105104E-03  9.79373712E+06  8.73534386E-05  6.82065407E-06  9.79373712E+06
         9   13       2.22928801E-02  2.04746832E+07  1.98180020E-05  6.27260803E+07  8.32007635E+07
         9   15       5.48613807E-03  1.98162606E-05  2.04751899E+07  3.03579628E-03  2.04751899E+07
         9   17       1.20035933E-02  5.56813934E+07  4.96639573E-04  2.61539004E-04  5.56813934E+07
        10   12       7.76105104E-03  9.79373712E+06  8.73534386E-05  6.82065407E-06  9.79373712E+06
        10   14       2.22928801E-02  2.04746832E+07  1.98180020E-05  6.27260803E+07  8.32007635E+07
        10   16       5.48613807E-03  1.98162606E-05  2.04751899E+07  3.03579628E-03  2.04751899E+07
        10   18       1.20035933E-02  5.56813934E+07  4.96639573E-04  2.61539004E-04  5.56813934E+07
        11   13       3.11642554E-01  2.03729630E+08  3.21148183E-03  1.05710334E-08  2.03729630E+08
        11   15       3.11642594E-01  3.21148473E-03  2.03729739E+08  3.26024397E-16  2.03729739E+08
        11   17       3.24757219E-01  1.70347787E-07  3.36939822E-20  3.44818234E+08  3.44818234E+08
        12   14       3.11642554E-01  2.03729630E+08  3.21148183E-03  1.05710334E-08  2.03729630E+08
        12   16       3.11642594E-01  3.21148473E-03  2.03729739E+08  3.26024397E-16  2.03729739E+08
        12   18       3.24757219E-01  1.70347787E-07  3.36939822E-20  3.44818234E+08  3.44818234E+08
        13   17       1.95699027E-03  9.63515151E+04  1.51883063E-06  3.05979404E-09  9.63515151E+04
        14   18       1.95699027E-03  9.63515151E+04  1.51883063E-06  3.05979404E-09  9.63515151E+04
        15   17       1.95698642E-03  1.51882898E-06  9.63511825E+04  1.66735973E-17  9.63511825E+04
        16   18       1.95698642E-03  1.51882898E-06  9.63511825E+04  1.66735973E-17  9.63511825E+04
     -----------------------------------------------------------------------------------------------
--

++ Velocity transition strengths (SO states):
   ------------------------------------------
    for osc. strength at least    1.0000000000000001E-005

      From   To        Osc. strength     Einstein coefficients Ax, Ay, Az (sec-1)    Total A (sec-1)
     -----------------------------------------------------------------------------------------------
         1   11       1.52654702E-04  5.25250916E+05  4.23816179E-05  1.01411016E-07  5.25250916E+05
         1   13       2.33681545E-02  1.25779438E+08  3.16011276E-03  3.99958921E+07  1.65775330E+08
         1   15       1.77301893E-02  3.16011065E-03  1.25779224E+08  6.71056738E-03  1.25779224E+08
         1   17       6.18928527E-03  5.15276193E+07  4.15772919E-03  5.68664465E-06  5.15276193E+07
         2   12       1.52654702E-04  5.25250916E+05  4.23816179E-05  1.01411016E-07  5.25250916E+05
         2   14       2.33681545E-02  1.25779438E+08  3.16011276E-03  3.99958921E+07  1.65775330E+08
         2   16       1.77301893E-02  3.16011065E-03  1.25779224E+08  6.71056738E-03  1.25779224E+08
         2   18       6.18928527E-03  5.15276193E+07  4.15772919E-03  5.68664465E-06  5.15276193E+07
         3   11       1.52653775E-04  4.23825597E-05  5.25247646E+05  8.85322238E-17  5.25247646E+05
         3   13       1.77302118E-02  3.16011133E-03  1.25779355E+08  6.71056896E-03  1.25779355E+08
         3   15       2.33681395E-02  1.25779388E+08  3.16010552E-03  3.99958383E+07  1.65775226E+08
         3   17       6.18927820E-03  4.15773390E-03  5.15275555E+07  7.48320589E-18  5.15275555E+07
         4   12       1.52653775E-04  4.23825597E-05  5.25247646E+05  8.85322238E-17  5.25247646E+05
         4   14       1.77302118E-02  3.16011133E-03  1.25779355E+08  6.71056896E-03  1.25779355E+08
         4   16       2.33681395E-02  1.25779388E+08  3.16010552E-03  3.99958383E+07  1.65775226E+08
         4   18       6.18927820E-03  4.15773390E-03  5.15275555E+07  7.48320589E-18  5.15275555E+07
         5    7       6.06707079E-04  6.85657806E-09  7.68740846E+02  6.24711439E-23  7.68740846E+02
         5    9       6.06699533E-04  7.68743891E+02  6.85665763E-09  3.28777908E-11  7.68743891E+02
         5   11       6.98065002E-04  5.44679808E-05  6.78310210E-17  9.37608847E+05  9.37608847E+05
         5   13       2.72947920E-02  1.05657683E+08  1.66552105E-03  4.04258233E-04  1.05657683E+08
         5   15       2.72946778E-02  1.66553098E-03  1.05657259E+08  2.38705456E-15  1.05657259E+08
         5   17       5.32238565E-03  3.82651888E-04  1.27741191E-15  2.55120189E+07  2.55120189E+07
         6    8       6.06707079E-04  6.85657806E-09  7.68740846E+02  6.24711439E-23  7.68740846E+02
         6   10       6.06699533E-04  7.68743891E+02  6.85665763E-09  3.28777908E-11  7.68743891E+02
         6   12       6.98065002E-04  5.44679808E-05  6.78310210E-17  9.37608847E+05  9.37608847E+05
         6   14       2.72947920E-02  1.05657683E+08  1.66552105E-03  4.04258233E-04  1.05657683E+08
         6   16       2.72946778E-02  1.66553098E-03  1.05657259E+08  2.38705456E-15  1.05657259E+08
         6   18       5.32238565E-03  3.82651888E-04  1.27741191E-15  2.55120189E+07  2.55120189E+07
         7   11       6.14830952E-03  6.92015617E-05  7.75863572E+06  2.25276517E-18  7.75863572E+06
         7   13       4.50556924E-03  1.62760445E-05  1.68156028E+07  2.49156878E-03  1.68156028E+07
         7   15       1.82994264E-02  1.68156112E+07  1.62742089E-05  5.14811838E+07  6.82967950E+07
         7   17       1.00802311E-02  4.17063436E-04  4.67596165E+07  7.65069954E-15  4.67596165E+07
         8   12       6.14830952E-03  6.92015617E-05  7.75863572E+06  2.25276517E-18  7.75863572E+06
         8   14       4.50556924E-03  1.62760445E-05  1.68156028E+07  2.49156878E-03  1.68156028E+07
         8   16       1.82994264E-02  1.68156112E+07  1.62742089E-05  5.14811838E+07  6.82967950E+07
         8   18       1.00802311E-02  4.17063436E-04  4.67596165E+07  7.65069954E-15  4.67596165E+07
         9   11       6.14830609E-03  7.75862736E+06  6.92017498E-05  7.63036527E-06  7.75862736E+06
         9   13       1.82993682E-02  1.68154131E+07  1.62761198E-05  5.14811322E+07  6.82965453E+07
         9   15       4.50563461E-03  1.62745380E-05  1.68158445E+07  2.49156752E-03  1.68158445E+07
         9   17       1.00802286E-02  4.67595923E+07  4.17063312E-04  2.00342326E-04  4.67595923E+07
        10   12       6.14830609E-03  7.75862736E+06  6.92017498E-05  7.63036527E-06  7.75862736E+06
        10   14       1.82993682E-02  1.68154131E+07  1.62761198E-05  5.14811322E+07  6.82965453E+07
        10   16       4.50563461E-03  1.62745380E-05  1.68158445E+07  2.49156752E-03  1.68158445E+07
        10   18       1.00802286E-02  4.67595923E+07  4.17063312E-04  2.00342326E-04  4.67595923E+07
        11   13       3.03171333E-01  1.98192440E+08  3.12419787E-03  1.16273938E-08  1.98192440E+08
        11   15       3.03171370E-01  3.12419796E-03  1.98192545E+08  1.80614587E-16  1.98192545E+08
        11   17       3.14692570E-01  1.61885002E-07  8.35247835E-18  3.34133030E+08  3.34133030E+08
        12   14       3.03171333E-01  1.98192440E+08  3.12419787E-03  1.16273938E-08  1.98192440E+08
        12   16       3.03171370E-01  3.12419796E-03  1.98192545E+08  1.80614587E-16  1.98192545E+08
        12   18       3.14692570E-01  1.61885002E-07  8.35247835E-18  3.34133030E+08  3.34133030E+08
        13   17       1.51616316E-03  7.46478549E+04  1.17670176E-06  3.09391947E-09  7.46478549E+04
        14   18       1.51616316E-03  7.46478549E+04  1.17670176E-06  3.09391947E-09  7.46478549E+04
        15   17       1.51615980E-03  1.17670970E-06  7.46475786E+04  5.21026505E-16  7.46475786E+04
        16   18       1.51615980E-03  1.17670970E-06  7.46475786E+04  5.21026505E-16  7.46475786E+04
     -----------------------------------------------------------------------------------------------
--

++ Length and velocity gauge comparison (SO states):

 --------------------------------------------------
 A comparison between the dipole oscillator strengths in 
 length and velocity gauge will be performed

 All dipole oscillator differences above the tolerance of   0.10000000000000001       will be printed 

 Due to basis set deficiency these oscillator may be problematic 

 The tolerance is defined as ABS(1-O_l/O_v) 
 O_l : dipole oscillator strength in length gauge
 O_p : dipole oscillator strength in velocity gauge
 --------------------------------------------------

  Problematic transitions have been found

      From   To       Difference (%) Osc. st. (len.) Osc. st. (vel.)
     ---------------------------------------------------------------
         1    5      ---------------  5.45322896E-05 below threshold
         1    9      ---------------  4.12050260E-05 below threshold
         1   11            35.477846  2.06813303E-04  1.52654702E-04
         1   13            18.355116  2.76574063E-02  2.33681545E-02
         1   15            18.205932  2.09581355E-02  1.77301893E-02
         1   17            15.814189  7.16807054E-03  6.18928527E-03
         2    6      ---------------  5.45322896E-05 below threshold
         2   10      ---------------  4.12050260E-05 below threshold
         2   12            35.477846  2.06813303E-04  1.52654702E-04
         2   14            18.355116  2.76574063E-02  2.33681545E-02
         2   16            18.205932  2.09581355E-02  1.77301893E-02
         2   18            15.814189  7.16807054E-03  6.18928527E-03
         3    5      ---------------  5.45321944E-05 below threshold
         3    7      ---------------  4.12050972E-05 below threshold
         3   11            35.477895  2.06812121E-04  1.52653775E-04
         3   13            18.205931  2.09581618E-02  1.77302118E-02
         3   15            18.355117  2.76573888E-02  2.33681395E-02
         3   17            15.814188  7.16806229E-03  6.18927820E-03
         4    6      ---------------  5.45321944E-05 below threshold
         4    8      ---------------  4.12050972E-05 below threshold
         4   12            35.477895  2.06812121E-04  1.52653775E-04
         4   14            18.205931  2.09581618E-02  1.77302118E-02
         4   16            18.355117  2.76573888E-02  2.33681395E-02
         4   18            15.814188  7.16806229E-03  6.18927820E-03
         5    7      --------------- below threshold  6.06707079E-04
         5    9      --------------- below threshold  6.06699533E-04
         5   11            10.591347  6.24130513E-04  6.98065002E-04
         5   13            13.352125  3.09392267E-02  2.72947920E-02
         5   15            13.352107  3.09390924E-02  2.72946778E-02
         5   17            31.712524  7.01024848E-03  5.32238565E-03
         6    8      --------------- below threshold  6.06707079E-04
         6   10      --------------- below threshold  6.06699533E-04
         6   12            10.591347  6.24130513E-04  6.98065002E-04
         6   14            13.352125  3.09392267E-02  2.72947920E-02
         6   16            13.352107  3.09390924E-02  2.72946778E-02
         6   18            31.712524  7.01024848E-03  5.32238565E-03
         7   11            26.230714  7.76105501E-03  6.14830952E-03
         7   13            21.761777  5.48606115E-03  4.50556924E-03
         7   15            21.823206  2.22929480E-02  1.82994264E-02
         7   17            19.080567  1.20035964E-02  1.00802311E-02
         8   12            26.230714  7.76105501E-03  6.14830952E-03
         8   14            21.761777  5.48606115E-03  4.50556924E-03
         8   16            21.823206  2.22929480E-02  1.82994264E-02
         8   18            19.080567  1.20035964E-02  1.00802311E-02
         9   11            26.230720  7.76105104E-03  6.14830609E-03
         9   13            21.823223  2.22928801E-02  1.82993682E-02
         9   15            21.761717  5.48613807E-03  4.50563461E-03
         9   17            19.080566  1.20035933E-02  1.00802286E-02
        10   12            26.230720  7.76105104E-03  6.14830609E-03
        10   14            21.823223  2.22928801E-02  1.82993682E-02
        10   16            21.761717  5.48613807E-03  4.50563461E-03
        10   18            19.080566  1.20035933E-02  1.00802286E-02
        13   17            29.075176  1.95699027E-03  1.51616316E-03
        14   18            29.075176  1.95699027E-03  1.51616316E-03
        15   17            29.075208  1.95698642E-03  1.51615980E-03
        16   18            29.075208  1.95698642E-03  1.51615980E-03
     ---------------------------------------------------------------

 Number of problematic transitions =                    56

--

 Electric-dipole - electric-octupole not included
++ I/O STATISTICS
 
  I. General I/O information
  - - - - - - - - - - - - - - - - - - - - - - - - - - - - - - - - - - - - - - - - - - -
  Unit  Name          Flsize      Write/Read            MBytes           Write/Read
                      (MBytes)       Calls              In/Out           Time, sec.
  - - - - - - - - - - - - - - - - - - - - - - - - - - - - - - - - - - - - - - - - - - -
   1  SCRATCH           0.00 .       9/      45 .      0.0/      0.0 .       0/       0
   2  ANNI              0.00 .       0/       0 .      0.0/      0.0 .       0/       0
   3  RUNFILE          14.85 .     322/   10733 .      2.3/     77.8 .       0/       0
   4  ONEINT            5.58 .       0/   23543 .      0.0/   3739.9 .       0/       0
   5  JOBIPH            6.48 .       0/      92 .      0.0/      0.8 .       0/       0
   6  ORDINT          506.53 .       1/    4053 .      0.0/   1013.0 .       0/       0
  - - - - - - - - - - - - - - - - - - - - - - - - - - - - - - - - - - - - - - - - - - -
   *  TOTAL           533.45 .     332/   38466 .      2.3/   4831.6 .       0/       0
  - - - - - - - - - - - - - - - - - - - - - - - - - - - - - - - - - - - - - - - - - - -
 
  II. I/O Access Patterns
  - - - - - - - - - - - - - - - - - - - -
  Unit  Name               % of random
                         Write/Read calls
  - - - - - - - - - - - - - - - - - - - -
   1  SCRATCH             88.9/ 100.0
   2  ANNI                 0.0/   0.0
   3  RUNFILE             28.6/  10.8
   4  ONEINT               0.0/  16.4
   5  JOBIPH               0.0/  76.1
   6  ORDINT             100.0/   0.0
  - - - - - - - - - - - - - - - - - - - -
--
--- Stop Module: rassi at Fri Jan 10 02:23:28 2025 /rc=_RC_ALL_IS_WELL_ ---
*** files: xmldump
    saved to directory /home4/s4752295/Internship/Initial_simulations/Point_charge_model/1_electron/active_space_9_non_rel/Cr/varying_bond_length
--- Module rassi spent 4 seconds ---

.##################.
.# Happy landing! #.
.##################.

    Timing: Wall=51.20 User=37.36 System=7.92

###############################################################################
Hbrk Cluster
Job 14556680 for user s4752295
Finished at: Fri Jan 10 02:23:28 CET 2025

Job details:
============

Job ID                         : 14556680
Name                           : Cr_no_c_light
User                           : s4752295
Partition                      : regularmedium
Nodes                          : node101
Number of Nodes                : 1
Cores                          : 1
Number of Tasks                : 1
State                          : RUNNING  
Submit                         : 2025-01-10T02:22:32
Start                          : 2025-01-10T02:22:33
End                            : --
Reserved walltime              : 15:00:00
Used walltime                  : 00:00:55
Used CPU time                  : -- 
% User (Computation)           : --
% System (I/O)                 : --
Total memory reserved          : 25000M
Maximum memory used            : --

Acknowledgements:
=================

Please see this page for information about acknowledging Hbrk in your publications:

https://wiki.hpc.rug.nl/habrok/introduction/scientific_output

################################################################################
