   This run of MOLCAS is using the pymolcas driver

                             OPE
                             OPE          NMOL  CASOP  ENMOLC A   SO
                 OPE        NMOLC        AS  OP EN  MO LC     AS  OP
                OPENM       OL CA        SO  PE NM  OL CA     SOP EN
                OP EN      MO   LC       AS  OP ENMOL  CASO   PENMOL
                OP  EN     MO   LC       AS  OP EN     MO     LC ASO
               OP   E  NMOL  C  AS       OP  EN MO     LC     AS  OP
               OP  E   NMO   LC AS        OPEN  MO     LCASOP EN   M
               O  PEN   MO  LCA  SO
            OPE   NMO   L   CAS    OP
        OPENMOL  CASOP     ENMOL   CASOPE
     OPENMOLCA   SOPENMOLCASOPEN   MOLCASOPE
    OPENMOLCAS   OP           EN   MOL    CAS
    OPENMOLCAS       OP  ENM        O     LCA
    OPENMOLCAS    OPEN  MOLCASO     P  E  NMO
    OPENMOLCAS     OP               E  N  MOL
    OPENMOLCA   SO           PENM   O  L  CAS    OPEN    MO    LCAS
    OPENMOLCA   SOP           ENM   O  L  CAS   OP  EN  MOLC  AS   O
    OPENMOLCA   SOPE           NM      O  LCA   S      OP  EN MO
    OPENMOLC                AS         O  PEN   M      OL  CA  SOPE
    OPENMO        LCASOPE  NMOL        C  ASO   P      ENMOLC     AS
    OPE     NMO      LCA  SO     P     E   NM   OL  CA SO  PE N   MO
          OPENMOLCA            SOPE   NMO        LCAS  O    P  ENMO
     OPENMOLCASOPENMOLCASOPENMOLCASOPENMOLCA
        OPENMOLCASOPENMOLCASOPENMOLCASOPE
            OPENMOLCASOPENMOLCASOPENM
               OPENMOLCASOPENMOLCA        version: o91e1abe7de707b ?
                   OPENMOLCASO
                       OPE                tag:

 OpenMolcas is free software; you can redistribute it and/or modify it
 under the terms of the GNU Lesser General Public License version 2.1.
 OpenMolcas is distributed in the hope that it will be useful, but it
 is provided "as is" and without any express or implied warranties.
 For more details see the full text of the license in the file
 LICENSE or in <http://www.gnu.org/licenses/>.

                 Copyright (C) The OpenMolcas Authors
           For the author list and the recommended citation,
                   consult the file CONTRIBUTORS.md

           *************************************************
           * pymolcas version py2.10                       *
           *   build 3068ae8b88c9345ec6cfef6fef7f1169      *
           *   (after the EMIL interpreter by V. Veryazov) *
           *************************************************

configuration info
------------------
Host name: login1 (Linux)
C Compiler ID: GNU
C flags: -std=gnu99
Fortran Compiler ID: GNU
Fortran flags: -fno-aggressive-loop-optimizations -cpp -fdefault-integer-8 -fmax-stack-var-size=1048576
Definitions: _MOLCAS_;_I8_;_LINUX_;_MKL_
Parallel: OFF (GA=OFF)


   ----------------------------------------------------------------------------------------------------------------------------------------------
  |
  |           Project: molybdenum_so_cf
  |    Submitted from: /home4/s4752295/Internship/Initial_simulations/Point_charge_model/1_electron/active_space_9_non_rel/Mo/varying_bond_length
  |      Scratch area: /tmp/molybdenum_so_cf
  |   Save outputs to: /home4/s4752295/Internship/Initial_simulations/Point_charge_model/1_electron/active_space_9_non_rel/Mo/varying_bond_length
  |            Molcas: /home4/s4752295/Internship/Molcas/recomp_try/OpenMolcas-master/build
  |
  | Scratch area is empty
  |
  |    MOLCAS_DRIVER = /home4/s4752295/Internship/Molcas/bin/pymolcas
  |    MOLCAS_NPROCS = 1
  |    MOLCAS_SOURCE = /home4/s4752295/Internship/Molcas/recomp_try/OpenMolcas-master
  | MOLCAS_STRUCTURE = 0
  |
   ----------------------------------------------------------------------------------------------------------------------------------------------

++ ---------   Input file   ---------

&SEWARD
AMFi

CLIG
$R

Basis Set
Mo.ANO-rcc.Roos.21s18p13d6f4g2h.10s9p9d6f4g2h.
Spherical d
Mo            0.0       0.0     0.0
End of Basis

Xfield

4
0.000000,  0.000000,  0.47250   -1.0
0.409197,  0.000000, -0.23625   -1.0
-0.204599,  0.354375, -0.23625  -1.0
-0.204599, -0.354375, -0.23625  -1.0

End of input

&SCF
Occupied
18
Iterations
   50  100
End of Input

&RASSCF
LumOrb
Symmetry
1
Spin
2
Nactel
1 0 0
CIRoot
9 9 1
inactive
18
ras2
9
End of Input

>>> COPY molybdenum_so_cf.JobIph $SLURM_SUBMIT_DIR/molybdenum_so_cf.doublet.JobIph

>>> COPY $SLURM_SUBMIT_DIR/molybdenum_so_cf.doublet.JobIph ./JOB002

&RASSI
NROFJobIph
1 All
SpinOrbit
End of Input

EOF

-- ----------------------------------

--- Start Module: seward at Thu Jan  9 20:14:55 2025 ---

()()()()()()()()()()()()()()()()()()()()()()()()()()()()()()()()()()()()()()()()()()()()()()()()()()

                                              &SEWARD

                                   only a single process is used
                       available to each process: 4.1 GB of memory, 1 thread?
                                            pid: 1279492
()()()()()()()()()()()()()()()()()()()()()()()()()()()()()()()()()()()()()()()()()()()()()()()()()()

 The speed of LIGHT in this CALCULATION =   137.03599917700001     
               SEWARD will generate:
                  Multipole Moment integrals up to order  2
                  Kinetic Energy integrals
                  Nuclear Attraction integrals (point charge)
                  One-Electron Hamiltonian integrals
                  Velocity integrals
                  Relativistic Douglas-Kroll-Hess integrals:
                    - Parametrization         : EXP
                    - DKH order of Hamiltonian: 2
                    - DKH order of Properties : 0
                         - multipole moment operators
                         - electric potential operators
                         - contact operators
                  External field from     4 point(s) added to the one-electron Hamiltonian
                  Orbital angular momentum around ( 0.0000  0.0000  0.0000 )
                  Velocity quadrupole around ( 0.0000  0.0000  0.0000 )
                  Atomic mean-field integrals
                  Two-Electron Repulsion integrals

                   Integrals are discarded if absolute value <: 0.10E-13
                   Integral cutoff threshold is set to       <: 0.10E-15

++    Symmetry information:
      ---------------------

                    Character Table for C1 

                             E  
                    a        1  x, y, xy, Rz, z, xz, Ry, yz, Rx, I
--


++    Basis set information:
      ----------------------


      Basis set label: MO.ANO-RCC.ROOS.21S18P13D6F4G2H.10S9P9D6F4G2H......

      Electronic valence basis set:
      ------------------
      Associated Effective Charge  42.000000 au
      Associated Actual Charge     42.000000 au
      Nuclear Model: Point charge

      Shell  nPrim  nBasis  Cartesian Spherical Contaminant
         s      21      10        X                  
         p      18       9        X                  
         d      13       9                 X         
         f       6       6                 X         
         g       4       4                 X         
         h       2       2                 X         
--


++    Molecular structure info:
      -------------------------

                    ************************************************ 
                    **** Cartesian Coordinates / Bohr, Angstrom **** 
                    ************************************************ 

     Center  Label                x              y              z                     x              y              z
        1      MO               0.000000       0.000000       0.000000              0.000000       0.000000       0.000000
--


++    Operator info:
      --------------


  Net charge from external field:   -4.0000000000000000     
--


            Nuclear Potential Energy              0.00000000 au

                    Nuclear-External Field Potential Energy    -355.55547490 au
                    External Field Potential Energy               7.89851815 au 


            Total Nuclear Potential Energy           -355.55547490 au


      Basis set specifications :
      Symmetry species         a  
      Basis functions          182

 Sorry, Molden does not know how to handle
 functions with angular momentum larger than g
Note: The following floating-point exceptions are signalling: IEEE_UNDERFLOW_FLAG IEEE_DENORMAL
--- Stop Module: seward at Thu Jan  9 20:15:08 2025 /rc=_RC_ALL_IS_WELL_ ---
*** files: molybdenum_so_cf.GssOrb xmldump
    saved to directory /home4/s4752295/Internship/Initial_simulations/Point_charge_model/1_electron/active_space_9_non_rel/Mo/varying_bond_length
--- Module seward spent 12 seconds ---

*** symbolic link created: INPORB -> molybdenum_so_cf.GssOrb
--- Start Module: scf at Thu Jan  9 20:15:08 2025 ---

()()()()()()()()()()()()()()()()()()()()()()()()()()()()()()()()()()()()()()()()()()()()()()()()()()

                                                &SCF

                                   only a single process is used
                       available to each process: 4.1 GB of memory, 1 thread?
                                            pid: 1279495
()()()()()()()()()()()()()()()()()()()()()()()()()()()()()()()()()()()()()()()()()()()()()()()()()()

++    Input section:
      --------------

      Header of the integral files:
      
       Integrals generated by seward 4.2.0  , Thu Jan  9 20:14:56 2025


      Cartesian coordinates in Angstrom:
      -----------------------------------------------------
      No.  Label        X            Y            Z        
      -----------------------------------------------------
       1   MO         0.00000000   0.00000000   0.00000000
      -----------------------------------------------------
      Nuclear repulsion energy = -355.55547490
--

++    Orbital specifications:
      -----------------------

      Symmetry species               1
                                     a
      Frozen orbitals                0
      Occupied orbitals             18
      Secondary orbitals           164
      Deleted orbitals               0
      Total number of orbitals     182
      Number of basis functions    182
--

      Molecular charge                           6.000

++    Optimization specifications:
      ----------------------------

      SCF Algorithm: Conventional
      Minimized density differences are used
      Number of density matrices in core                5
      Maximum number of NDDO SCF iterations            50
      Maximum number of HF SCF iterations             100
      Threshold for SCF energy change            0.10E-08
      Threshold for density matrix               0.10E-03
      Threshold for Fock matrix                  0.15E-03
      Threshold for linear dependence            0.10E-08
      Threshold at which DIIS is turned on       0.15E+00
      Threshold at which QNR/C2DIIS is turned on 0.75E-01
      Threshold for Norm(delta) (QNR/C2DIIS)     0.20E-04
      DIIS extrapolation of the SCF procedure
      All orbitals punched on: SCFORB
--

      Detected guessorb starting orbitals                                             


++ Convergence information
                                   SCF        iterations: Energy and convergence statistics

Iter     Tot. SCF        One-elec.       Two-elec.     Energy      Max Dij or  Max Fij      DNorm      TNorm      AccCon     Time
         Energy          Energy          Energy        Change      Delta Norm                                                in Sec.

 The total and one-electron energies are shifted by a value of      4000. a.u.

   1  -136.731078254 -1187.200052644  1406.024449289   0.00E+00    0.37E+00*   0.82E+00*    0.85E+01   0.55E+03   None         1.
   2  -139.002030933 -1102.564676174  1319.118120139  -0.23E+01*   0.10E+00*   0.40E+00*    0.24E+01   0.54E+03   EDIIS        1.
   3  -139.317828770 -1143.709853410  1359.947499539  -0.32E+00*   0.43E-01*   0.22E+00*    0.36E+00   0.54E+03   EDIIS        1.
   4  -139.400496751 -1123.611380654  1339.766358802  -0.83E-01*   0.20E-01*   0.11E+00*    0.87E-01   0.54E+03   EDIIS        1.
   5  -139.420399137 -1133.698200251  1349.833276012  -0.20E-01*   0.12E-02*   0.38E-01*    0.15E-01   0.54E+03   c2DIIS       1.
   6  -139.427503465 -1130.319105033  1346.447076467  -0.71E-02*   0.45E-03*   0.50E-03*    0.24E-02   0.54E+03   QNRc2DIIS    1.
   7  -139.427504545 -1130.277452754  1346.405423108  -0.11E-05*   0.17E-03*   0.23E-03*    0.54E-03   0.54E+03   QNRc2DIIS    1.
   8  -139.427504756 -1130.290622105  1346.418592247  -0.21E-06*   0.51E-04*   0.26E-04     0.34E-04   0.54E+03   QNRc2DIIS    1.
   9  -139.427504763 -1130.291475006  1346.419445142  -0.67E-08*   0.61E-05    0.69E-05     0.34E-03   0.54E+03   QNRc2DIIS    1.
  10  -139.427504763 -1130.291556006  1346.419526142  -0.18E-09    0.10E-05    0.78E-06     0.85E-03   0.54E+03   QNRc2DIIS    1.

       Convergence after 10 Macro Iterations
--

 *****************************************************************************************************************************
 *                                                                                                                           *
 *                                             SCF/KS-DFT Program, Final results                                             *
 *                                                                                                                           *
 *                                                                                                                           *
 *                                                                                                                           *
 *                                                       Final Results                                                       *
 *                                                                                                                           *
 *****************************************************************************************************************************

::    Total SCF energy                              -4139.4275047631
      One-electron energy                           -5130.2915560063
      Two-electron energy                            1346.4195261418
      Nuclear repulsion energy                       -355.5554748987
      Kinetic energy (interpolated)                  4396.2996163340
      Virial theorem                                    0.9415708359
      Total spin, S(S+1)                                0.0000000000
      Total spin, S                                     0.0000000000
      Max non-diagonal density matrix element           0.0000008039
      Max non-diagonal Fock matrix element              0.0000003456


      All orbitals with orbital energies smaller than  E(LUMO)+0.5 are printed

++    Molecular orbitals:
      -------------------

      Title: SCF orbitals

      Molecular orbitals for symmetry species 1: a  

          Orbital            1         2         3         4         5         6         7         8         9        10    
          Energy         -736.9023 -104.9624  -93.4973  -93.4973  -93.4271  -16.8236  -13.1403  -13.1403  -12.6493   -6.9909
          Occ. No.          2.0000    2.0000    2.0000    2.0000    2.0000    2.0000    2.0000    2.0000    2.0000    2.0000

        1 MO     1s         1.0000    0.0001   -0.0000   -0.0000   -0.0000   -0.0000   -0.0000    0.0000    0.0000    0.0000
        2 MO     2s        -0.0001    0.9999   -0.0000   -0.0000   -0.0104    0.0018    0.0000   -0.0000   -0.0008   -0.0000
        3 MO     3s         0.0000   -0.0020    0.0000    0.0000    0.0005    0.9952   -0.0000   -0.0000   -0.0824   -0.0000
        4 MO     4s        -0.0000    0.0007   -0.0000   -0.0000   -0.0001    0.0277    0.0000   -0.0000   -0.0060   -0.0000
        5 MO     5s         0.0000   -0.0002   -0.0000    0.0000    0.0000   -0.0051    0.0000   -0.0000    0.0010    0.0000
        6 MO     6s        -0.0000    0.0002   -0.0000   -0.0000   -0.0000    0.0057    0.0000    0.0000   -0.0011   -0.0000
        7 MO     7s         0.0000   -0.0006    0.0000    0.0000    0.0001   -0.0133   -0.0000   -0.0000    0.0022    0.0000
        8 MO     8s        -0.0000    0.0005    0.0000   -0.0000   -0.0001    0.0068   -0.0000    0.0000   -0.0007   -0.0000
        9 MO     9s         0.0000   -0.0005    0.0000    0.0000    0.0001   -0.0029   -0.0000   -0.0000   -0.0002   -0.0000
       10 MO    10s        -0.0000    0.0006   -0.0000   -0.0000   -0.0001   -0.0056    0.0000    0.0000    0.0021    0.0000
       11 MO     2px        0.0000    0.0000    0.0000    1.0000    0.0000   -0.0000   -0.0000    0.0016    0.0000    0.0000
       12 MO     3px       -0.0000    0.0000   -0.0000   -0.0018   -0.0000    0.0000   -0.0000    0.9932    0.0000   -0.0000
       13 MO     4px        0.0000   -0.0000    0.0000    0.0006    0.0000    0.0000   -0.0000    0.0325    0.0000   -0.0000
       14 MO     5px       -0.0000    0.0000   -0.0000   -0.0002   -0.0000   -0.0000    0.0000   -0.0088   -0.0000    0.0000
       15 MO     6px        0.0000   -0.0000    0.0000    0.0005    0.0000    0.0000   -0.0000    0.0175    0.0000    0.0000
       16 MO     7px       -0.0000    0.0000   -0.0000   -0.0005   -0.0000   -0.0000    0.0000   -0.0104   -0.0000   -0.0000
       17 MO     8px        0.0000   -0.0000    0.0000    0.0006    0.0000    0.0000   -0.0000    0.0056   -0.0000    0.0000
       18 MO     9px       -0.0000    0.0000   -0.0000   -0.0005   -0.0000   -0.0000    0.0000   -0.0001    0.0000   -0.0000
       19 MO    10px        0.0000   -0.0000    0.0000    0.0005    0.0000    0.0000    0.0000   -0.0054   -0.0000    0.0000
       20 MO     2py        0.0000    0.0000    1.0000   -0.0000   -0.0000    0.0000    0.0016    0.0000   -0.0000    0.0002
       21 MO     3py        0.0000   -0.0000   -0.0018    0.0000    0.0000    0.0000    0.9932    0.0000    0.0000   -0.0006
       22 MO     4py        0.0000    0.0000    0.0006   -0.0000   -0.0000   -0.0000    0.0325    0.0000   -0.0000   -0.0003
       23 MO     5py        0.0000   -0.0000   -0.0002    0.0000    0.0000    0.0000   -0.0088   -0.0000    0.0000    0.0000
       24 MO     6py       -0.0000    0.0000    0.0005   -0.0000   -0.0000   -0.0000    0.0175    0.0000    0.0000    0.0000
       25 MO     7py        0.0000   -0.0000   -0.0005    0.0000    0.0000    0.0000   -0.0104   -0.0000   -0.0000   -0.0002
       26 MO     8py       -0.0000    0.0000    0.0006   -0.0000   -0.0000   -0.0000    0.0056    0.0000   -0.0000    0.0003
       27 MO     9py        0.0000   -0.0000   -0.0005    0.0000    0.0000    0.0000   -0.0001   -0.0000    0.0000   -0.0004
       28 MO    10py       -0.0000    0.0000    0.0005   -0.0000   -0.0000   -0.0000   -0.0054   -0.0000    0.0000    0.0005
       29 MO     2pz        0.0000    0.0104   -0.0000   -0.0000    0.9999   -0.0002   -0.0000   -0.0000    0.0025    0.0000
       30 MO     3pz       -0.0000    0.0006    0.0000    0.0000   -0.0025    0.0810    0.0000   -0.0000    0.9935    0.0000
       31 MO     4pz        0.0000   -0.0002   -0.0000   -0.0000    0.0008    0.0001   -0.0000   -0.0000    0.0381    0.0000
       32 MO     5pz       -0.0000    0.0001   -0.0000    0.0000   -0.0003   -0.0001   -0.0000    0.0000   -0.0101   -0.0000
       33 MO     6pz        0.0000   -0.0002    0.0000   -0.0000    0.0007    0.0003   -0.0000   -0.0000    0.0196   -0.0000
       34 MO     7pz       -0.0000    0.0001   -0.0000    0.0000   -0.0006   -0.0004    0.0000    0.0000   -0.0111   -0.0000
       35 MO     8pz        0.0000   -0.0002    0.0000   -0.0000    0.0007    0.0007    0.0000   -0.0000    0.0048   -0.0000
       36 MO     9pz       -0.0000    0.0002   -0.0000    0.0000   -0.0007   -0.0008   -0.0000    0.0000    0.0018   -0.0000
       37 MO    10pz        0.0000   -0.0002   -0.0000   -0.0000    0.0006    0.0010   -0.0000    0.0000   -0.0084   -0.0000
       38 MO     3d2-       0.0000    0.0000    0.0008   -0.0000   -0.0000   -0.0000    0.0587    0.0000    0.0000    0.8404
       39 MO     4d2-       0.0000   -0.0000   -0.0001    0.0000    0.0000   -0.0000   -0.0006   -0.0000   -0.0000    0.0359
       40 MO     5d2-      -0.0000    0.0000    0.0001   -0.0000    0.0000    0.0000    0.0002    0.0000   -0.0000   -0.0312
       41 MO     6d2-       0.0000   -0.0000   -0.0001    0.0000   -0.0000   -0.0000    0.0002    0.0000    0.0000    0.0201
       42 MO     7d2-      -0.0000    0.0000    0.0001   -0.0000   -0.0000    0.0000   -0.0008   -0.0000    0.0000   -0.0121
       43 MO     8d2-       0.0000   -0.0000   -0.0001    0.0000    0.0000    0.0000    0.0019    0.0000    0.0000    0.0077
       44 MO     9d2-      -0.0000    0.0000    0.0001   -0.0000    0.0000   -0.0000   -0.0025   -0.0000   -0.0000   -0.0027
       45 MO    10d2-      -0.0000   -0.0000   -0.0001    0.0000    0.0000    0.0000    0.0042    0.0000    0.0000   -0.0009
       46 MO    11d2-      -0.0000    0.0000   -0.0001    0.0000    0.0000    0.0000   -0.0017   -0.0000   -0.0000    0.0025
       47 MO     3d1-       0.0000   -0.0000    0.0015   -0.0000   -0.0000    0.0000    0.0902    0.0000    0.0000   -0.5379
       48 MO     4d1-       0.0000   -0.0000   -0.0003    0.0000    0.0000   -0.0000   -0.0008   -0.0000   -0.0000   -0.0228
       49 MO     5d1-      -0.0000    0.0000    0.0003   -0.0000   -0.0000    0.0000    0.0003    0.0000    0.0000    0.0199
       50 MO     6d1-       0.0000    0.0000   -0.0003    0.0000    0.0000   -0.0000    0.0003    0.0000    0.0000   -0.0129
       51 MO     7d1-      -0.0000   -0.0000    0.0003   -0.0000   -0.0000    0.0000   -0.0012   -0.0000   -0.0000    0.0079
       52 MO     8d1-      -0.0000    0.0000   -0.0004    0.0000    0.0000   -0.0000    0.0027    0.0000   -0.0000   -0.0052
       53 MO     9d1-       0.0000   -0.0000    0.0003   -0.0000   -0.0000    0.0000   -0.0035   -0.0000    0.0000    0.0021
       54 MO    10d1-      -0.0000    0.0000   -0.0004    0.0000    0.0000   -0.0000    0.0057    0.0000    0.0000   -0.0001
       55 MO    11d1-       0.0000   -0.0000    0.0002   -0.0000    0.0000    0.0000   -0.0024   -0.0000   -0.0000   -0.0014
       56 MO     3d0       -0.0000   -0.0007   -0.0000   -0.0000   -0.0003   -0.0302    0.0000   -0.0000   -0.0591   -0.0000
       57 MO     4d0        0.0000    0.0001    0.0000    0.0000    0.0000    0.0007    0.0000   -0.0000    0.0005   -0.0000
       58 MO     5d0       -0.0000   -0.0002   -0.0000   -0.0000   -0.0000   -0.0004   -0.0000    0.0000   -0.0002    0.0000
       59 MO     6d0        0.0000    0.0001    0.0000    0.0000    0.0000    0.0001    0.0000   -0.0000   -0.0003   -0.0000
       60 MO     7d0       -0.0000   -0.0001   -0.0000   -0.0000    0.0000    0.0004   -0.0000    0.0000    0.0010    0.0000
       61 MO     8d0        0.0000    0.0002    0.0000    0.0000   -0.0000   -0.0012   -0.0000   -0.0000   -0.0022   -0.0000
       62 MO     9d0       -0.0000   -0.0002   -0.0000   -0.0000    0.0001    0.0017    0.0000    0.0000    0.0029    0.0000
       63 MO    10d0        0.0000    0.0002    0.0000    0.0000   -0.0002   -0.0029   -0.0000   -0.0000   -0.0049    0.0000
       64 MO    11d0       -0.0000   -0.0000   -0.0000   -0.0000    0.0004    0.0014    0.0000   -0.0000    0.0017   -0.0000
       65 MO     3d1+      -0.0000   -0.0000    0.0000    0.0015    0.0000   -0.0000   -0.0000    0.0902    0.0000   -0.0000
       66 MO     4d1+       0.0000    0.0000   -0.0000   -0.0003   -0.0000   -0.0000    0.0000   -0.0008    0.0000   -0.0000
       67 MO     5d1+      -0.0000   -0.0000    0.0000    0.0003    0.0000    0.0000   -0.0000    0.0003   -0.0000    0.0000
       68 MO     6d1+       0.0000    0.0000   -0.0000   -0.0003   -0.0000   -0.0000   -0.0000    0.0003    0.0000   -0.0000
       69 MO     7d1+      -0.0000   -0.0000    0.0000    0.0003    0.0000    0.0000    0.0000   -0.0012   -0.0000    0.0000
       70 MO     8d1+       0.0000   -0.0000   -0.0000   -0.0004   -0.0000   -0.0000   -0.0000    0.0027    0.0000   -0.0000
       71 MO     9d1+      -0.0000    0.0000    0.0000    0.0003    0.0000    0.0000    0.0000   -0.0035   -0.0000    0.0000
       72 MO    10d1+       0.0000   -0.0000   -0.0000   -0.0004   -0.0000   -0.0000   -0.0000    0.0057    0.0000   -0.0000
       73 MO    11d1+      -0.0000   -0.0000    0.0000    0.0002    0.0000   -0.0000    0.0000   -0.0024   -0.0000   -0.0000
       74 MO     3d2+      -0.0000   -0.0000   -0.0000   -0.0008    0.0000   -0.0000    0.0000   -0.0587    0.0000   -0.0000
       75 MO     4d2+       0.0000    0.0000    0.0000    0.0001   -0.0000    0.0000   -0.0000    0.0006   -0.0000   -0.0000
       76 MO     5d2+      -0.0000   -0.0000   -0.0000   -0.0001    0.0000   -0.0000    0.0000   -0.0002    0.0000    0.0000
       77 MO     6d2+       0.0000    0.0000    0.0000    0.0001   -0.0000    0.0000    0.0000   -0.0002   -0.0000   -0.0000
       78 MO     7d2+      -0.0000   -0.0000   -0.0000   -0.0001    0.0000   -0.0000   -0.0000    0.0008    0.0000    0.0000
       79 MO     8d2+       0.0000    0.0000    0.0000    0.0001   -0.0000   -0.0000    0.0000   -0.0019   -0.0000   -0.0000
       80 MO     9d2+      -0.0000   -0.0000   -0.0000   -0.0001    0.0000    0.0000   -0.0000    0.0025   -0.0000    0.0000
       81 MO    10d2+       0.0000    0.0000    0.0000    0.0001   -0.0000   -0.0000    0.0000   -0.0042    0.0000    0.0000
       82 MO    11d2+      -0.0000   -0.0000    0.0000    0.0001   -0.0000    0.0000   -0.0000    0.0017   -0.0000   -0.0000
       83 MO     4f3-      -0.0000    0.0000   -0.0000    0.0000    0.0000   -0.0000   -0.0000   -0.0000   -0.0000    0.0000
       84 MO     5f3-      -0.0000    0.0000   -0.0000    0.0000    0.0000    0.0000   -0.0000   -0.0000    0.0000    0.0000
       85 MO     6f3-       0.0000   -0.0000    0.0000   -0.0000   -0.0000   -0.0000    0.0000    0.0000    0.0000   -0.0000
       86 MO     7f3-       0.0000    0.0000   -0.0000    0.0000    0.0000    0.0000   -0.0000   -0.0000   -0.0000    0.0000
       87 MO     8f3-       0.0000   -0.0000   -0.0000    0.0000   -0.0000    0.0000   -0.0000   -0.0000    0.0000    0.0000
       88 MO     9f3-      -0.0000    0.0000    0.0000   -0.0000   -0.0000   -0.0000    0.0000    0.0000    0.0000   -0.0000
       89 MO     4f2-       0.0000   -0.0000   -0.0000    0.0000    0.0000   -0.0000   -0.0024   -0.0000   -0.0000    0.0054
       90 MO     5f2-       0.0000   -0.0000   -0.0000    0.0000    0.0000   -0.0000   -0.0027   -0.0000   -0.0000    0.0056
       91 MO     6f2-      -0.0000    0.0000    0.0000   -0.0000   -0.0000    0.0000    0.0027    0.0000    0.0000   -0.0049
       92 MO     7f2-       0.0000   -0.0000   -0.0000    0.0000    0.0000   -0.0000   -0.0026   -0.0000   -0.0000    0.0042
       93 MO     8f2-       0.0000   -0.0000   -0.0000    0.0000    0.0000   -0.0000   -0.0020   -0.0000   -0.0000    0.0028
       94 MO     9f2-      -0.0000    0.0000    0.0003   -0.0000   -0.0000    0.0000    0.0103    0.0000    0.0000   -0.0132
       95 MO     4f1-      -0.0000    0.0000   -0.0000    0.0000    0.0000    0.0000   -0.0016   -0.0000   -0.0000   -0.0022
       96 MO     5f1-      -0.0000    0.0000   -0.0000    0.0000   -0.0000    0.0000   -0.0018   -0.0000    0.0000   -0.0023
       97 MO     6f1-      -0.0000   -0.0000    0.0000   -0.0000   -0.0000   -0.0000    0.0017    0.0000    0.0000    0.0020
       98 MO     7f1-       0.0000   -0.0000   -0.0000    0.0000    0.0000    0.0000   -0.0016   -0.0000   -0.0000   -0.0017
       99 MO     8f1-      -0.0000   -0.0000   -0.0000    0.0000   -0.0000    0.0000   -0.0012   -0.0000   -0.0000   -0.0011
      100 MO     9f1-       0.0000    0.0000    0.0002   -0.0000    0.0000    0.0000    0.0057    0.0000   -0.0000    0.0049
      101 MO     4f0       -0.0000   -0.0001    0.0000    0.0000   -0.0000   -0.0053   -0.0000    0.0000   -0.0019    0.0000
      102 MO     5f0       -0.0000   -0.0000    0.0000    0.0000   -0.0000   -0.0060   -0.0000    0.0000   -0.0022    0.0000
      103 MO     6f0       -0.0000    0.0000   -0.0000   -0.0000    0.0000    0.0059    0.0000   -0.0000    0.0021   -0.0000
      104 MO     7f0        0.0000   -0.0001    0.0000    0.0000   -0.0000   -0.0059   -0.0000    0.0000   -0.0019    0.0000
      105 MO     8f0        0.0000   -0.0001    0.0000    0.0000   -0.0000   -0.0046   -0.0000    0.0000   -0.0014    0.0000
      106 MO     9f0       -0.0000    0.0007   -0.0000   -0.0000    0.0002    0.0238    0.0000   -0.0000    0.0066   -0.0000
      107 MO     4f1+      -0.0000   -0.0000   -0.0000   -0.0000   -0.0000   -0.0000    0.0000   -0.0016   -0.0000   -0.0000
      108 MO     5f1+       0.0000   -0.0000   -0.0000   -0.0000   -0.0000   -0.0000    0.0000   -0.0018   -0.0000   -0.0000
      109 MO     6f1+      -0.0000    0.0000    0.0000    0.0000    0.0000    0.0000   -0.0000    0.0017    0.0000    0.0000
      110 MO     7f1+       0.0000   -0.0000   -0.0000   -0.0000   -0.0000   -0.0000    0.0000   -0.0016   -0.0000   -0.0000
      111 MO     8f1+       0.0000   -0.0000   -0.0000   -0.0000   -0.0000   -0.0000    0.0000   -0.0012   -0.0000   -0.0000
      112 MO     9f1+      -0.0000    0.0000    0.0000    0.0002    0.0000    0.0000   -0.0000    0.0057    0.0000    0.0000
      113 MO     4f2+       0.0000    0.0000    0.0000    0.0000   -0.0000    0.0000   -0.0000    0.0024   -0.0000   -0.0000
      114 MO     5f2+       0.0000    0.0000    0.0000    0.0000   -0.0000    0.0000   -0.0000    0.0027   -0.0000   -0.0000
      115 MO     6f2+       0.0000   -0.0000   -0.0000   -0.0000    0.0000   -0.0000    0.0000   -0.0027    0.0000    0.0000
      116 MO     7f2+      -0.0000    0.0000    0.0000    0.0000   -0.0000    0.0000   -0.0000    0.0026   -0.0000   -0.0000
      117 MO     8f2+      -0.0000    0.0000    0.0000    0.0000   -0.0000    0.0000   -0.0000    0.0020   -0.0000   -0.0000
      118 MO     9f2+       0.0000   -0.0000   -0.0000   -0.0003    0.0000   -0.0000    0.0000   -0.0103    0.0000    0.0000
      119 MO     4f3+      -0.0000   -0.0000   -0.0000   -0.0000    0.0000   -0.0034    0.0000   -0.0000    0.0029   -0.0000
      120 MO     5f3+      -0.0000   -0.0000   -0.0000   -0.0000    0.0000   -0.0038    0.0000   -0.0000    0.0033   -0.0000
      121 MO     6f3+      -0.0000    0.0000   -0.0000   -0.0000   -0.0000    0.0038   -0.0000    0.0000   -0.0032    0.0000
      122 MO     7f3+       0.0000   -0.0000   -0.0000   -0.0000    0.0000   -0.0038    0.0000   -0.0000    0.0031   -0.0000
      123 MO     8f3+       0.0000   -0.0001   -0.0000   -0.0000    0.0000   -0.0029    0.0000   -0.0000    0.0023   -0.0000
      124 MO     9f3+      -0.0000    0.0004    0.0000    0.0000   -0.0002    0.0151   -0.0000    0.0000   -0.0118    0.0000
      125 MO     5g4-      -0.0000   -0.0000   -0.0000    0.0000    0.0000   -0.0000   -0.0014   -0.0000   -0.0000   -0.0003
      126 MO     6g4-       0.0000   -0.0000    0.0000   -0.0000   -0.0000    0.0000    0.0019    0.0000    0.0000    0.0003
      127 MO     7g4-      -0.0000    0.0000   -0.0000    0.0000    0.0000   -0.0000   -0.0030   -0.0000   -0.0000   -0.0005
      128 MO     8g4-      -0.0000   -0.0000    0.0001   -0.0000   -0.0000    0.0000    0.0040    0.0000    0.0000    0.0006
      129 MO     5g3-       0.0000    0.0000    0.0000   -0.0000    0.0000    0.0000    0.0000    0.0000    0.0000   -0.0000
      130 MO     6g3-      -0.0000   -0.0000   -0.0000    0.0000   -0.0000   -0.0000   -0.0000   -0.0000   -0.0000    0.0000
      131 MO     7g3-       0.0000    0.0000    0.0000   -0.0000    0.0000    0.0000    0.0000    0.0000    0.0000    0.0000
      132 MO     8g3-      -0.0000   -0.0000   -0.0000    0.0000    0.0000   -0.0000   -0.0000   -0.0000   -0.0000   -0.0000
      133 MO     5g2-      -0.0000   -0.0000    0.0000   -0.0000   -0.0000   -0.0000    0.0001    0.0000   -0.0000   -0.0003
      134 MO     6g2-       0.0000    0.0000   -0.0000    0.0000    0.0000    0.0000   -0.0002   -0.0000    0.0000    0.0004
      135 MO     7g2-      -0.0000   -0.0000    0.0000   -0.0000   -0.0000   -0.0000    0.0004    0.0000   -0.0000   -0.0005
      136 MO     8g2-       0.0000    0.0000   -0.0000    0.0000    0.0000   -0.0000   -0.0005   -0.0000   -0.0000    0.0006
      137 MO     5g1-      -0.0000   -0.0000   -0.0000    0.0000    0.0000   -0.0000   -0.0017   -0.0000    0.0000    0.0012
      138 MO     6g1-      -0.0000    0.0000    0.0000   -0.0000   -0.0000    0.0000    0.0024    0.0000   -0.0000   -0.0014
      139 MO     7g1-       0.0000   -0.0000   -0.0001    0.0000    0.0000   -0.0000   -0.0037   -0.0000   -0.0000    0.0021
      140 MO     8g1-      -0.0000    0.0000    0.0001   -0.0000   -0.0000    0.0000    0.0049    0.0000    0.0000   -0.0027
      141 MO     5g0        0.0000   -0.0000    0.0000    0.0000   -0.0000   -0.0002   -0.0000    0.0000   -0.0029   -0.0000
      142 MO     6g0       -0.0000    0.0000    0.0000   -0.0000    0.0001    0.0003   -0.0000   -0.0000    0.0041    0.0000
      143 MO     7g0        0.0000   -0.0000   -0.0000    0.0000   -0.0001   -0.0006   -0.0000    0.0000   -0.0064   -0.0000
      144 MO     8g0       -0.0000    0.0000    0.0000   -0.0000    0.0001    0.0008   -0.0000   -0.0000    0.0086    0.0000
      145 MO     5g1+      -0.0000    0.0000   -0.0000   -0.0000   -0.0000    0.0000    0.0000   -0.0017   -0.0000    0.0000
      146 MO     6g1+       0.0000   -0.0000    0.0000    0.0000    0.0000   -0.0000   -0.0000    0.0024    0.0000   -0.0000
      147 MO     7g1+      -0.0000    0.0000   -0.0000   -0.0001   -0.0000    0.0000    0.0000   -0.0037   -0.0000    0.0000
      148 MO     8g1+       0.0000   -0.0000    0.0000    0.0001    0.0000   -0.0000   -0.0000    0.0049    0.0000   -0.0000
      149 MO     5g2+       0.0000   -0.0000   -0.0000   -0.0000    0.0000   -0.0000    0.0000   -0.0001    0.0000    0.0000
      150 MO     6g2+      -0.0000    0.0000    0.0000    0.0000   -0.0000    0.0000   -0.0000    0.0002   -0.0000   -0.0000
      151 MO     7g2+       0.0000   -0.0000   -0.0000   -0.0000    0.0000   -0.0000    0.0000   -0.0004    0.0000    0.0000
      152 MO     8g2+      -0.0000    0.0000    0.0000    0.0000   -0.0000    0.0000   -0.0000    0.0005   -0.0000   -0.0000
      153 MO     5g3+      -0.0000    0.0000   -0.0000    0.0000   -0.0000    0.0013    0.0000    0.0000   -0.0019    0.0000
      154 MO     6g3+       0.0000   -0.0000   -0.0000   -0.0000    0.0000   -0.0020    0.0000   -0.0000    0.0026   -0.0000
      155 MO     7g3+      -0.0000    0.0001    0.0000    0.0000   -0.0001    0.0033   -0.0000    0.0000   -0.0042    0.0000
      156 MO     8g3+       0.0000   -0.0001   -0.0000   -0.0000    0.0001   -0.0045    0.0000   -0.0000    0.0056    0.0000
      157 MO     5g4+      -0.0000    0.0000   -0.0000   -0.0000   -0.0000    0.0000    0.0000   -0.0014   -0.0000   -0.0000
      158 MO     6g4+       0.0000   -0.0000    0.0000    0.0000    0.0000   -0.0000   -0.0000    0.0019    0.0000    0.0000
      159 MO     7g4+      -0.0000    0.0000   -0.0000   -0.0000   -0.0000    0.0000    0.0000   -0.0030   -0.0000   -0.0000
      160 MO     8g4+       0.0000   -0.0000    0.0000    0.0001    0.0000   -0.0000   -0.0000    0.0040    0.0000    0.0000
      161 MO     6h5-      -0.0000   -0.0000    0.0000   -0.0000   -0.0000   -0.0000    0.0001    0.0000   -0.0000   -0.0007
      162 MO     7h5-       0.0000    0.0000   -0.0000    0.0000    0.0000    0.0000   -0.0001   -0.0000   -0.0000    0.0008
      163 MO     6h4-      -0.0000    0.0000    0.0000   -0.0000   -0.0000    0.0000    0.0005    0.0000    0.0000    0.0003
      164 MO     7h4-       0.0000   -0.0000   -0.0000    0.0000    0.0000   -0.0000   -0.0006   -0.0000   -0.0000   -0.0004
      165 MO     6h3-      -0.0000   -0.0000   -0.0000   -0.0000   -0.0000   -0.0000   -0.0000    0.0000    0.0000   -0.0000
      166 MO     7h3-       0.0000    0.0000    0.0000    0.0000    0.0000    0.0000    0.0000   -0.0000    0.0000    0.0000
      167 MO     6h2-      -0.0000    0.0000    0.0000   -0.0000   -0.0000    0.0000    0.0002    0.0000    0.0000   -0.0006
      168 MO     7h2-       0.0000   -0.0000   -0.0000    0.0000    0.0000   -0.0000   -0.0002   -0.0000   -0.0000    0.0006
      169 MO     6h1-      -0.0000   -0.0000    0.0000   -0.0000   -0.0000   -0.0000    0.0001    0.0000   -0.0000    0.0006
      170 MO     7h1-       0.0000    0.0000   -0.0000    0.0000    0.0000    0.0000   -0.0001   -0.0000   -0.0000   -0.0006
      171 MO     6h0        0.0000   -0.0000   -0.0000   -0.0000   -0.0000   -0.0002   -0.0000   -0.0000   -0.0003    0.0000
      172 MO     7h0       -0.0000    0.0000    0.0000    0.0000    0.0000    0.0002    0.0000    0.0000    0.0003   -0.0000
      173 MO     6h1+       0.0000   -0.0000    0.0000    0.0000    0.0000   -0.0000   -0.0000    0.0001    0.0000    0.0000
      174 MO     7h1+      -0.0000    0.0000   -0.0000   -0.0000   -0.0000    0.0000    0.0000   -0.0001   -0.0000   -0.0000
      175 MO     6h2+       0.0000   -0.0000   -0.0000   -0.0000   -0.0000   -0.0000    0.0000   -0.0002   -0.0000    0.0000
      176 MO     7h2+      -0.0000    0.0000    0.0000    0.0000    0.0000    0.0000   -0.0000    0.0002    0.0000   -0.0000
      177 MO     6h3+       0.0000   -0.0000   -0.0000   -0.0000    0.0000   -0.0002    0.0000   -0.0000    0.0005   -0.0000
      178 MO     7h3+      -0.0000    0.0000    0.0000    0.0000   -0.0000    0.0003   -0.0000    0.0000   -0.0006   -0.0000
      179 MO     6h4+       0.0000   -0.0000    0.0000    0.0000    0.0000   -0.0000   -0.0000    0.0005    0.0000    0.0000
      180 MO     7h4+      -0.0000    0.0000   -0.0000   -0.0000   -0.0000    0.0000    0.0000   -0.0006   -0.0000   -0.0000
      181 MO     6h5+       0.0000   -0.0000   -0.0000   -0.0000    0.0000   -0.0000    0.0000   -0.0001    0.0000    0.0000
      182 MO     7h5+      -0.0000    0.0000    0.0000    0.0000   -0.0000    0.0000   -0.0000    0.0001   -0.0000   -0.0000

          Orbital           11        12        13        14        15        16        17        18        19        20    
          Energy           -6.9909   -6.4144   -6.3287   -6.3287   -2.6408   -1.6848   -1.6848   -1.6222   -0.4012   -0.2966
          Occ. No.          2.0000    2.0000    2.0000    2.0000    2.0000    2.0000    2.0000    2.0000    0.0000    0.0000

        1 MO     1s         0.0000    0.0000   -0.0000   -0.0000    0.0000   -0.0000   -0.0000   -0.0000   -0.0000   -0.0000
        2 MO     2s         0.0000    0.0007    0.0000   -0.0000   -0.0006    0.0000    0.0000    0.0002    0.0002   -0.0000
        3 MO     3s         0.0000    0.0247    0.0000    0.0000   -0.0247    0.0000    0.0000    0.0035    0.0060   -0.0000
        4 MO     4s         0.0000    0.0071   -0.0000   -0.0000    0.9797   -0.0000   -0.0000   -0.0567   -0.0824    0.0000
        5 MO     5s        -0.0000   -0.0007   -0.0000    0.0000    0.0979   -0.0000   -0.0000   -0.0224    0.9853   -0.0000
        6 MO     6s         0.0000    0.0007    0.0000   -0.0000   -0.0888   -0.0000    0.0000    0.0175   -0.0126   -0.0000
        7 MO     7s        -0.0000   -0.0012    0.0000    0.0000    0.1309   -0.0000   -0.0000   -0.0194   -0.1305    0.0000
        8 MO     8s         0.0000   -0.0000    0.0000   -0.0000   -0.0144    0.0000   -0.0000   -0.0014   -0.0387    0.0000
        9 MO     9s         0.0000    0.0006    0.0000    0.0000    0.0019    0.0000    0.0000   -0.0001   -0.0104    0.0000
       10 MO    10s        -0.0000   -0.0018   -0.0000   -0.0000    0.0011   -0.0000   -0.0000   -0.0003   -0.0006    0.0000
       11 MO     2px       -0.0002    0.0000   -0.0000   -0.0018   -0.0000   -0.0000   -0.0005   -0.0000   -0.0000   -0.0000
       12 MO     3px        0.0006    0.0000   -0.0000   -0.1057   -0.0000   -0.0000   -0.0289   -0.0000    0.0000    0.0000
       13 MO     4px        0.0003    0.0000   -0.0000   -0.0217    0.0000    0.0000    0.9749    0.0000    0.0000   -0.0000
       14 MO     5px       -0.0000   -0.0000    0.0000    0.0044   -0.0000    0.0000    0.1372    0.0000    0.0000    0.0000
       15 MO     6px       -0.0000    0.0000   -0.0000   -0.0069    0.0000   -0.0000   -0.1598   -0.0000   -0.0000    0.0000
       16 MO     7px        0.0002   -0.0000    0.0000    0.0023    0.0000    0.0000    0.0269    0.0000   -0.0000    0.0000
       17 MO     8px       -0.0003   -0.0000    0.0000    0.0012   -0.0000    0.0000    0.0022    0.0000   -0.0000    0.0000
       18 MO     9px        0.0004    0.0000   -0.0000   -0.0035    0.0000    0.0000    0.0082    0.0000   -0.0000   -0.0000
       19 MO    10px       -0.0005   -0.0000    0.0000    0.0054   -0.0000    0.0000    0.0033    0.0000    0.0000   -0.0000
       20 MO     2py        0.0000    0.0000   -0.0018    0.0000    0.0000   -0.0005    0.0000    0.0000    0.0000    0.0000
       21 MO     3py       -0.0000    0.0000   -0.1057    0.0000   -0.0000   -0.0289    0.0000    0.0000   -0.0000   -0.0026
       22 MO     4py       -0.0000    0.0000   -0.0217    0.0000   -0.0000    0.9749   -0.0000   -0.0000    0.0000    0.0452
       23 MO     5py        0.0000   -0.0000    0.0044   -0.0000    0.0000    0.1372   -0.0000   -0.0000   -0.0000   -0.7254
       24 MO     6py        0.0000    0.0000   -0.0069    0.0000   -0.0000   -0.1598    0.0000    0.0000   -0.0000   -0.2484
       25 MO     7py       -0.0000    0.0000    0.0023   -0.0000    0.0000    0.0269   -0.0000    0.0000   -0.0000   -0.0933
       26 MO     8py        0.0000   -0.0000    0.0012   -0.0000   -0.0000    0.0022   -0.0000    0.0000   -0.0000   -0.0078
       27 MO     9py       -0.0000    0.0000   -0.0035    0.0000    0.0000    0.0082   -0.0000   -0.0000    0.0000    0.0067
       28 MO    10py        0.0000   -0.0000    0.0054   -0.0000   -0.0000    0.0033   -0.0000   -0.0000   -0.0000    0.0016
       29 MO     2pz       -0.0000    0.0004    0.0000    0.0000    0.0001    0.0000    0.0000   -0.0007   -0.0000    0.0000
       30 MO     3pz       -0.0000    0.0601    0.0000    0.0000    0.0005    0.0000    0.0000   -0.0322   -0.0005    0.0000
       31 MO     4pz       -0.0000    0.0128    0.0000    0.0000    0.0644   -0.0000   -0.0000    0.9682    0.0076    0.0000
       32 MO     5pz        0.0000   -0.0025   -0.0000   -0.0000   -0.0022   -0.0000   -0.0000    0.1570    0.0504   -0.0000
       33 MO     6pz       -0.0000    0.0036    0.0000    0.0000    0.0021    0.0000    0.0000   -0.1770   -0.0013   -0.0000
       34 MO     7pz        0.0000   -0.0007   -0.0000   -0.0000   -0.0001    0.0000   -0.0000    0.0265   -0.0025   -0.0000
       35 MO     8pz        0.0000   -0.0018   -0.0000    0.0000   -0.0001   -0.0000   -0.0000    0.0033   -0.0019   -0.0000
       36 MO     9pz       -0.0000    0.0033    0.0000    0.0000   -0.0000   -0.0000   -0.0000    0.0092   -0.0006    0.0000
       37 MO    10pz        0.0000   -0.0045   -0.0000   -0.0000   -0.0004   -0.0000   -0.0000    0.0042    0.0001    0.0000
       38 MO     3d2-       0.0000   -0.0000    0.5332   -0.0000    0.0000    0.0071   -0.0000   -0.0000    0.0000   -0.0127
       39 MO     4d2-       0.0000   -0.0000    0.0295   -0.0000   -0.0000    0.0246   -0.0000   -0.0000    0.0000    0.4681
       40 MO     5d2-      -0.0000    0.0000   -0.0245    0.0000   -0.0000   -0.0109    0.0000   -0.0000    0.0000    0.2706
       41 MO     6d2-       0.0000   -0.0000    0.0146   -0.0000    0.0000    0.0028   -0.0000   -0.0000    0.0000    0.1070
       42 MO     7d2-      -0.0000    0.0000   -0.0075    0.0000    0.0000   -0.0010    0.0000   -0.0000   -0.0000    0.0347
       43 MO     8d2-       0.0000   -0.0000    0.0028   -0.0000   -0.0000    0.0008   -0.0000    0.0000   -0.0000   -0.0135
       44 MO     9d2-      -0.0000   -0.0000    0.0012   -0.0000    0.0000   -0.0003    0.0000    0.0000    0.0000   -0.0126
       45 MO    10d2-      -0.0000    0.0000   -0.0058    0.0000    0.0000   -0.0007    0.0000    0.0000    0.0000   -0.0029
       46 MO    11d2-       0.0000   -0.0000    0.0035   -0.0000   -0.0000    0.0007   -0.0000    0.0000    0.0000   -0.0007
       47 MO     3d1-      -0.0000   -0.0000    0.8343   -0.0000    0.0000    0.0101   -0.0000   -0.0000   -0.0000   -0.0082
       48 MO     4d1-      -0.0000   -0.0000    0.0457   -0.0000   -0.0000    0.0461   -0.0000   -0.0000    0.0000    0.2648
       49 MO     5d1-       0.0000    0.0000   -0.0381    0.0000    0.0000   -0.0204    0.0000    0.0000    0.0000    0.1474
       50 MO     6d1-      -0.0000   -0.0000    0.0228   -0.0000   -0.0000    0.0049   -0.0000    0.0000    0.0000    0.0573
       51 MO     7d1-       0.0000    0.0000   -0.0119    0.0000    0.0000   -0.0016    0.0000    0.0000    0.0000    0.0183
       52 MO     8d1-      -0.0000   -0.0000    0.0049   -0.0000   -0.0000    0.0012   -0.0000   -0.0000   -0.0000   -0.0073
       53 MO     9d1-       0.0000   -0.0000    0.0013   -0.0000    0.0000   -0.0004    0.0000   -0.0000   -0.0000   -0.0067
       54 MO    10d1-      -0.0000    0.0000   -0.0079    0.0000   -0.0000   -0.0010    0.0000    0.0000   -0.0000   -0.0015
       55 MO    11d1-      -0.0000   -0.0000    0.0051   -0.0000    0.0000    0.0011   -0.0000   -0.0000   -0.0000   -0.0004
       56 MO     3d0        0.0000    0.9945    0.0000    0.0000   -0.0056    0.0000    0.0000   -0.0082   -0.0004   -0.0000
       57 MO     4d0        0.0000    0.0528    0.0000    0.0000   -0.0151   -0.0000   -0.0000   -0.0132    0.0295    0.0000
       58 MO     5d0       -0.0000   -0.0443   -0.0000   -0.0000    0.0098    0.0000    0.0000    0.0057    0.0031    0.0000
       59 MO     6d0        0.0000    0.0268    0.0000    0.0000   -0.0042   -0.0000   -0.0000   -0.0018    0.0009    0.0000
       60 MO     7d0       -0.0000   -0.0143   -0.0000   -0.0000    0.0018    0.0000   -0.0000    0.0009   -0.0004    0.0000
       61 MO     8d0        0.0000    0.0064    0.0000    0.0000   -0.0010    0.0000    0.0000   -0.0007   -0.0000   -0.0000
       62 MO     9d0       -0.0000    0.0007    0.0000   -0.0000    0.0004   -0.0000   -0.0000    0.0002   -0.0001   -0.0000
       63 MO    10d0       -0.0000   -0.0080   -0.0000   -0.0000    0.0003   -0.0000   -0.0000    0.0008   -0.0001   -0.0000
       64 MO    11d0        0.0000    0.0055    0.0000    0.0000   -0.0007   -0.0000    0.0000   -0.0008    0.0002   -0.0000
       65 MO     3d1+       0.5379   -0.0000    0.0000    0.8343    0.0000    0.0000    0.0101   -0.0000   -0.0000    0.0000
       66 MO     4d1+       0.0228   -0.0000    0.0000    0.0457   -0.0000    0.0000    0.0461    0.0000    0.0000   -0.0000
       67 MO     5d1+      -0.0199    0.0000   -0.0000   -0.0381    0.0000   -0.0000   -0.0204   -0.0000    0.0000   -0.0000
       68 MO     6d1+       0.0129   -0.0000    0.0000    0.0228   -0.0000    0.0000    0.0049    0.0000    0.0000   -0.0000
       69 MO     7d1+      -0.0079    0.0000   -0.0000   -0.0119    0.0000   -0.0000   -0.0016   -0.0000   -0.0000   -0.0000
       70 MO     8d1+       0.0052   -0.0000    0.0000    0.0049   -0.0000    0.0000    0.0012    0.0000   -0.0000    0.0000
       71 MO     9d1+      -0.0021   -0.0000    0.0000    0.0013    0.0000   -0.0000   -0.0004   -0.0000   -0.0000    0.0000
       72 MO    10d1+       0.0001    0.0000   -0.0000   -0.0079    0.0000   -0.0000   -0.0010   -0.0000   -0.0000    0.0000
       73 MO    11d1+       0.0014   -0.0000    0.0000    0.0051    0.0000    0.0000    0.0011    0.0000    0.0000    0.0000
       74 MO     3d2+       0.8404    0.0000   -0.0000   -0.5332   -0.0000   -0.0000   -0.0071    0.0000    0.0000   -0.0000
       75 MO     4d2+       0.0359    0.0000   -0.0000   -0.0295   -0.0000   -0.0000   -0.0246    0.0000    0.0000    0.0000
       76 MO     5d2+      -0.0312   -0.0000    0.0000    0.0245    0.0000    0.0000    0.0109   -0.0000    0.0000    0.0000
       77 MO     6d2+       0.0201    0.0000   -0.0000   -0.0146   -0.0000   -0.0000   -0.0028    0.0000    0.0000    0.0000
       78 MO     7d2+      -0.0121    0.0000    0.0000    0.0075    0.0000    0.0000    0.0010   -0.0000   -0.0000    0.0000
       79 MO     8d2+       0.0077   -0.0000   -0.0000   -0.0028   -0.0000   -0.0000   -0.0008    0.0000   -0.0000   -0.0000
       80 MO     9d2+      -0.0027    0.0000   -0.0000   -0.0012    0.0000    0.0000    0.0003   -0.0000   -0.0000   -0.0000
       81 MO    10d2+      -0.0009   -0.0000    0.0000    0.0058    0.0000    0.0000    0.0007   -0.0000   -0.0000   -0.0000
       82 MO    11d2+       0.0025    0.0000   -0.0000   -0.0035   -0.0000   -0.0000   -0.0007    0.0000    0.0000   -0.0000
       83 MO     4f3-       0.0000   -0.0000    0.0000    0.0000   -0.0000   -0.0000    0.0000    0.0000    0.0000    0.0000
       84 MO     5f3-       0.0000   -0.0000    0.0000   -0.0000   -0.0000   -0.0000    0.0000   -0.0000   -0.0000   -0.0000
       85 MO     6f3-      -0.0000    0.0000   -0.0000    0.0000   -0.0000    0.0000   -0.0000   -0.0000   -0.0000   -0.0000
       86 MO     7f3-       0.0000   -0.0000    0.0000   -0.0000    0.0000   -0.0000    0.0000   -0.0000   -0.0000   -0.0000
       87 MO     8f3-       0.0000   -0.0000    0.0000   -0.0000    0.0000    0.0000   -0.0000    0.0000    0.0000    0.0000
       88 MO     9f3-      -0.0000    0.0000   -0.0000    0.0000   -0.0000   -0.0000    0.0000   -0.0000    0.0000    0.0000
       89 MO     4f2-       0.0000   -0.0000    0.0124   -0.0000    0.0000   -0.0010    0.0000    0.0000   -0.0000    0.0054
       90 MO     5f2-       0.0000   -0.0000    0.0130   -0.0000    0.0000   -0.0004    0.0000   -0.0000   -0.0000   -0.0016
       91 MO     6f2-      -0.0000    0.0000   -0.0113    0.0000   -0.0000    0.0000   -0.0000    0.0000    0.0000   -0.0010
       92 MO     7f2-       0.0000   -0.0000    0.0098   -0.0000    0.0000    0.0001   -0.0000   -0.0000   -0.0000   -0.0009
       93 MO     8f2-       0.0000   -0.0000    0.0065   -0.0000    0.0000    0.0002   -0.0000    0.0000   -0.0000    0.0002
       94 MO     9f2-      -0.0000    0.0000   -0.0316    0.0000   -0.0000   -0.0023    0.0000    0.0000   -0.0000    0.0012
       95 MO     4f1-      -0.0000   -0.0000    0.0025   -0.0000   -0.0000   -0.0044    0.0000    0.0000    0.0000    0.0007
       96 MO     5f1-      -0.0000   -0.0000    0.0025   -0.0000    0.0000   -0.0018    0.0000    0.0000   -0.0000   -0.0021
       97 MO     6f1-       0.0000    0.0000   -0.0021    0.0000   -0.0000    0.0005   -0.0000   -0.0000   -0.0000   -0.0012
       98 MO     7f1-      -0.0000   -0.0000    0.0018   -0.0000    0.0000   -0.0003    0.0000   -0.0000   -0.0000   -0.0010
       99 MO     8f1-      -0.0000   -0.0000    0.0011   -0.0000    0.0000   -0.0000    0.0000   -0.0000    0.0000    0.0004
      100 MO     9f1-       0.0000    0.0000   -0.0055    0.0000   -0.0000   -0.0008    0.0000    0.0000    0.0000    0.0000
      101 MO     4f0       -0.0000   -0.0052   -0.0000   -0.0000   -0.0104    0.0000    0.0000   -0.0055    0.0044    0.0000
      102 MO     5f0       -0.0000   -0.0056   -0.0000   -0.0000   -0.0061    0.0000    0.0000   -0.0021    0.0013   -0.0000
      103 MO     6f0        0.0000    0.0051    0.0000    0.0000    0.0030   -0.0000   -0.0000    0.0006   -0.0016   -0.0000
      104 MO     7f0       -0.0000   -0.0045   -0.0000   -0.0000   -0.0018    0.0000    0.0000   -0.0003    0.0006   -0.0000
      105 MO     8f0       -0.0000   -0.0031   -0.0000   -0.0000   -0.0004   -0.0000    0.0000   -0.0000    0.0003    0.0000
      106 MO     9f0        0.0000    0.0155    0.0000    0.0000   -0.0029    0.0000    0.0000   -0.0012    0.0005   -0.0000
      107 MO     4f1+       0.0022    0.0000    0.0000    0.0025   -0.0000   -0.0000   -0.0044   -0.0000    0.0000   -0.0000
      108 MO     5f1+       0.0023    0.0000    0.0000    0.0025   -0.0000   -0.0000   -0.0018   -0.0000    0.0000    0.0000
      109 MO     6f1+      -0.0020   -0.0000   -0.0000   -0.0021    0.0000    0.0000    0.0005    0.0000   -0.0000    0.0000
      110 MO     7f1+       0.0017    0.0000    0.0000    0.0018   -0.0000   -0.0000   -0.0003   -0.0000    0.0000    0.0000
      111 MO     8f1+       0.0011    0.0000    0.0000    0.0011   -0.0000   -0.0000   -0.0000   -0.0000    0.0000   -0.0000
      112 MO     9f1+      -0.0049   -0.0000   -0.0000   -0.0055   -0.0000   -0.0000   -0.0008    0.0000    0.0000   -0.0000
      113 MO     4f2+       0.0054    0.0000   -0.0000   -0.0124    0.0000    0.0000    0.0010   -0.0000   -0.0000    0.0000
      114 MO     5f2+       0.0056    0.0000   -0.0000   -0.0130    0.0000    0.0000    0.0004   -0.0000    0.0000   -0.0000
      115 MO     6f2+      -0.0049   -0.0000    0.0000    0.0113    0.0000   -0.0000   -0.0000   -0.0000    0.0000   -0.0000
      116 MO     7f2+       0.0042    0.0000   -0.0000   -0.0098   -0.0000   -0.0000   -0.0001    0.0000    0.0000   -0.0000
      117 MO     8f2+       0.0028    0.0000   -0.0000   -0.0065   -0.0000   -0.0000   -0.0002    0.0000    0.0000    0.0000
      118 MO     9f2+      -0.0132   -0.0000    0.0000    0.0316    0.0000    0.0000    0.0023   -0.0000   -0.0000    0.0000
      119 MO     4f3+       0.0000    0.0046    0.0000    0.0000   -0.0067   -0.0000   -0.0000    0.0018    0.0030    0.0000
      120 MO     5f3+       0.0000    0.0048    0.0000    0.0000   -0.0040   -0.0000   -0.0000    0.0007    0.0008   -0.0000
      121 MO     6f3+      -0.0000   -0.0042   -0.0000   -0.0000    0.0020    0.0000   -0.0000   -0.0002   -0.0011   -0.0000
      122 MO     7f3+       0.0000    0.0036    0.0000    0.0000   -0.0012    0.0000    0.0000    0.0001    0.0004   -0.0000
      123 MO     8f3+       0.0000    0.0024    0.0000    0.0000   -0.0002    0.0000    0.0000   -0.0001    0.0002    0.0000
      124 MO     9f3+      -0.0000   -0.0114   -0.0000   -0.0000   -0.0018   -0.0000   -0.0000    0.0020    0.0004    0.0000
      125 MO     5g4-      -0.0000   -0.0000    0.0017   -0.0000    0.0000   -0.0025    0.0000    0.0000   -0.0000   -0.0004
      126 MO     6g4-       0.0000    0.0000   -0.0021    0.0000   -0.0000    0.0012   -0.0000   -0.0000   -0.0000    0.0001
      127 MO     7g4-      -0.0000   -0.0000    0.0032   -0.0000    0.0000   -0.0007    0.0000    0.0000    0.0000   -0.0003
      128 MO     8g4-       0.0000    0.0000   -0.0043    0.0000   -0.0000    0.0003   -0.0000    0.0000   -0.0000    0.0002
      129 MO     5g3-      -0.0000   -0.0000   -0.0000    0.0000   -0.0000    0.0000   -0.0000    0.0000    0.0000   -0.0000
      130 MO     6g3-       0.0000    0.0000    0.0000   -0.0000    0.0000   -0.0000    0.0000   -0.0000   -0.0000   -0.0000
      131 MO     7g3-       0.0000   -0.0000   -0.0000    0.0000   -0.0000    0.0000   -0.0000   -0.0000   -0.0000   -0.0000
      132 MO     8g3-      -0.0000   -0.0000    0.0000   -0.0000    0.0000    0.0000   -0.0000    0.0000    0.0000   -0.0000
      133 MO     5g2-      -0.0000    0.0000   -0.0015    0.0000   -0.0000   -0.0003    0.0000    0.0000    0.0000   -0.0008
      134 MO     6g2-       0.0000   -0.0000    0.0019   -0.0000    0.0000    0.0002   -0.0000    0.0000   -0.0000   -0.0002
      135 MO     7g2-      -0.0000    0.0000   -0.0028    0.0000   -0.0000   -0.0001    0.0000   -0.0000    0.0000   -0.0002
      136 MO     8g2-       0.0000   -0.0000    0.0037   -0.0000    0.0000    0.0002   -0.0000    0.0000   -0.0000   -0.0001
      137 MO     5g1-       0.0000   -0.0000    0.0003   -0.0000    0.0000   -0.0034    0.0000    0.0000   -0.0000   -0.0011
      138 MO     6g1-      -0.0000    0.0000   -0.0006    0.0000   -0.0000    0.0016   -0.0000   -0.0000   -0.0000   -0.0000
      139 MO     7g1-       0.0000   -0.0000    0.0010   -0.0000    0.0000   -0.0009    0.0000    0.0000    0.0000   -0.0005
      140 MO     8g1-      -0.0000    0.0000   -0.0016    0.0000   -0.0000    0.0004   -0.0000   -0.0000   -0.0000    0.0001
      141 MO     5g0        0.0000   -0.0032   -0.0000   -0.0000   -0.0004   -0.0000    0.0000   -0.0043    0.0000   -0.0000
      142 MO     6g0       -0.0000    0.0038    0.0000    0.0000    0.0002    0.0000   -0.0000    0.0021   -0.0000    0.0000
      143 MO     7g0        0.0000   -0.0056   -0.0000   -0.0000   -0.0002    0.0000    0.0000   -0.0011    0.0001    0.0000
      144 MO     8g0       -0.0000    0.0075    0.0000    0.0000    0.0001   -0.0000   -0.0000    0.0003   -0.0001    0.0000
      145 MO     5g1+      -0.0012   -0.0000    0.0000    0.0003    0.0000   -0.0000   -0.0034   -0.0000   -0.0000    0.0000
      146 MO     6g1+       0.0014    0.0000   -0.0000   -0.0006   -0.0000    0.0000    0.0016    0.0000    0.0000    0.0000
      147 MO     7g1+      -0.0021   -0.0000    0.0000    0.0010    0.0000   -0.0000   -0.0009   -0.0000   -0.0000    0.0000
      148 MO     8g1+       0.0027    0.0000   -0.0000   -0.0016   -0.0000    0.0000    0.0004    0.0000    0.0000   -0.0000
      149 MO     5g2+      -0.0003   -0.0000    0.0000    0.0015   -0.0000    0.0000    0.0003    0.0000   -0.0000   -0.0000
      150 MO     6g2+       0.0004    0.0000   -0.0000   -0.0019    0.0000   -0.0000   -0.0002   -0.0000   -0.0000   -0.0000
      151 MO     7g2+      -0.0005   -0.0000    0.0000    0.0028    0.0000    0.0000    0.0001    0.0000   -0.0000   -0.0000
      152 MO     8g2+       0.0006    0.0000   -0.0000   -0.0037   -0.0000   -0.0000   -0.0002    0.0000    0.0000   -0.0000
      153 MO     5g3+      -0.0000   -0.0007   -0.0000   -0.0000    0.0018    0.0000    0.0000   -0.0023   -0.0006   -0.0000
      154 MO     6g3+       0.0000    0.0009    0.0000    0.0000   -0.0012   -0.0000   -0.0000    0.0011    0.0005   -0.0000
      155 MO     7g3+      -0.0000   -0.0013   -0.0000   -0.0000    0.0008   -0.0000    0.0000   -0.0006   -0.0003   -0.0000
      156 MO     8g3+       0.0000    0.0018    0.0000    0.0000   -0.0005    0.0000    0.0000    0.0001    0.0002    0.0000
      157 MO     5g4+       0.0003   -0.0000    0.0000    0.0017    0.0000   -0.0000   -0.0025   -0.0000   -0.0000    0.0000
      158 MO     6g4+      -0.0003    0.0000   -0.0000   -0.0021   -0.0000    0.0000    0.0012    0.0000    0.0000   -0.0000
      159 MO     7g4+       0.0005   -0.0000    0.0000    0.0032    0.0000   -0.0000   -0.0007   -0.0000   -0.0000    0.0000
      160 MO     8g4+      -0.0006    0.0000   -0.0000   -0.0043   -0.0000    0.0000    0.0003    0.0000    0.0000   -0.0000
      161 MO     6h5-      -0.0000    0.0000   -0.0007    0.0000    0.0000    0.0000   -0.0000    0.0000    0.0000   -0.0003
      162 MO     7h5-       0.0000   -0.0000    0.0007   -0.0000   -0.0000   -0.0000    0.0000   -0.0000   -0.0000    0.0002
      163 MO     6h4-       0.0000    0.0000   -0.0010    0.0000   -0.0000    0.0008   -0.0000   -0.0000    0.0000    0.0000
      164 MO     7h4-      -0.0000   -0.0000    0.0012   -0.0000    0.0000   -0.0005    0.0000    0.0000   -0.0000   -0.0001
      165 MO     6h3-      -0.0000    0.0000    0.0000    0.0000    0.0000   -0.0000    0.0000    0.0000    0.0000    0.0000
      166 MO     7h3-       0.0000   -0.0000   -0.0000   -0.0000   -0.0000    0.0000   -0.0000   -0.0000   -0.0000   -0.0000
      167 MO     6h2-      -0.0000    0.0000   -0.0006    0.0000   -0.0000    0.0002   -0.0000   -0.0000    0.0000   -0.0002
      168 MO     7h2-       0.0000   -0.0000    0.0007   -0.0000    0.0000   -0.0001    0.0000    0.0000    0.0000    0.0001
      169 MO     6h1-       0.0000    0.0000   -0.0013    0.0000    0.0000   -0.0001    0.0000    0.0000    0.0000   -0.0002
      170 MO     7h1-      -0.0000   -0.0000    0.0015   -0.0000   -0.0000    0.0000   -0.0000   -0.0000    0.0000    0.0001
      171 MO     6h0       -0.0000   -0.0018   -0.0000   -0.0000   -0.0001    0.0000   -0.0000   -0.0001   -0.0000   -0.0000
      172 MO     7h0        0.0000    0.0021    0.0000    0.0000    0.0001   -0.0000    0.0000    0.0001   -0.0000    0.0000
      173 MO     6h1+      -0.0006    0.0000   -0.0000   -0.0013   -0.0000   -0.0000   -0.0001    0.0000    0.0000    0.0000
      174 MO     7h1+       0.0006   -0.0000    0.0000    0.0015    0.0000    0.0000    0.0000   -0.0000   -0.0000   -0.0000
      175 MO     6h2+      -0.0006    0.0000    0.0000    0.0006    0.0000   -0.0000   -0.0002   -0.0000   -0.0000   -0.0000
      176 MO     7h2+       0.0006   -0.0000   -0.0000   -0.0007   -0.0000    0.0000    0.0001    0.0000    0.0000    0.0000
      177 MO     6h3+      -0.0000   -0.0004   -0.0000   -0.0000   -0.0002   -0.0000   -0.0000    0.0008    0.0001    0.0000
      178 MO     7h3+       0.0000    0.0005    0.0000    0.0000    0.0002    0.0000    0.0000   -0.0005   -0.0001    0.0000
      179 MO     6h4+      -0.0003    0.0000   -0.0000   -0.0010   -0.0000    0.0000    0.0008    0.0000    0.0000   -0.0000
      180 MO     7h4+       0.0004   -0.0000    0.0000    0.0012    0.0000   -0.0000   -0.0005   -0.0000   -0.0000    0.0000
      181 MO     6h5+      -0.0007    0.0000    0.0000    0.0007   -0.0000   -0.0000   -0.0000    0.0000   -0.0000   -0.0000
      182 MO     7h5+       0.0008   -0.0000   -0.0000   -0.0007    0.0000    0.0000    0.0000   -0.0000   -0.0000    0.0000

          Orbital           21        22        23        24        25        26        27        28        29        30    
          Energy           -0.2966   -0.2943   -0.2943   -0.2900   -0.2841   -0.2829   -0.2829   -0.1855   -0.1531   -0.1531
          Occ. No.          0.0000    0.0000    0.0000    0.0000    0.0000    0.0000    0.0000    0.0000    0.0000    0.0000

        1 MO     1s         0.0000   -0.0000   -0.0000    0.0000   -0.0000    0.0000    0.0000    0.0000    0.0000    0.0000
        2 MO     2s        -0.0000   -0.0000   -0.0000   -0.0001   -0.0000   -0.0000    0.0000   -0.0001    0.0000    0.0000
        3 MO     3s        -0.0000   -0.0000   -0.0000   -0.0012   -0.0004    0.0000    0.0000   -0.0036    0.0000    0.0000
        4 MO     4s         0.0000    0.0000    0.0000    0.0109    0.0008   -0.0000    0.0000    0.0455   -0.0000   -0.0000
        5 MO     5s        -0.0000    0.0000   -0.0000   -0.0495    0.0077    0.0000   -0.0000    0.0571    0.0000    0.0000
        6 MO     6s        -0.0000    0.0000   -0.0000   -0.0311   -0.0007    0.0000   -0.0000    0.9490   -0.0000   -0.0000
        7 MO     7s         0.0000   -0.0000    0.0000    0.0124   -0.0004   -0.0000    0.0000    0.2737   -0.0000   -0.0000
        8 MO     8s         0.0000   -0.0000    0.0000    0.0072    0.0001   -0.0000    0.0000    0.1227   -0.0000   -0.0000
        9 MO     9s         0.0000   -0.0000    0.0000    0.0029    0.0000   -0.0000    0.0000    0.0343   -0.0000   -0.0000
       10 MO    10s         0.0000   -0.0000    0.0000    0.0005    0.0001   -0.0000    0.0000    0.0025   -0.0000   -0.0000
       11 MO     2px       -0.0000    0.0000    0.0000   -0.0000    0.0000   -0.0000    0.0002    0.0000    0.0000    0.0000
       12 MO     3px        0.0026   -0.0000   -0.0015   -0.0000    0.0000   -0.0000    0.0064   -0.0000    0.0000    0.0004
       13 MO     4px       -0.0452    0.0000    0.0179    0.0000   -0.0000    0.0000   -0.0628   -0.0000   -0.0000   -0.0007
       14 MO     5px        0.7254   -0.0000   -0.2763   -0.0000    0.0000   -0.0000    0.5028    0.0000   -0.0000   -0.0006
       15 MO     6px        0.2484   -0.0000   -0.0970   -0.0000    0.0000   -0.0000    0.2208    0.0000    0.0000    0.0059
       16 MO     7px        0.0933   -0.0000   -0.0373   -0.0000    0.0000   -0.0000    0.0944    0.0000    0.0000    0.0065
       17 MO     8px        0.0078   -0.0000   -0.0037   -0.0000    0.0000   -0.0000    0.0145    0.0000    0.0000    0.0031
       18 MO     9px       -0.0067    0.0000    0.0023    0.0000   -0.0000    0.0000   -0.0024    0.0000    0.0000    0.0012
       19 MO    10px       -0.0016    0.0000    0.0007    0.0000   -0.0000    0.0000   -0.0015    0.0000    0.0000    0.0001
       20 MO     2py       -0.0000   -0.0000    0.0000   -0.0000    0.0000    0.0002    0.0000    0.0000   -0.0000    0.0000
       21 MO     3py        0.0000    0.0015   -0.0000   -0.0000    0.0000    0.0064    0.0000    0.0000   -0.0004    0.0000
       22 MO     4py       -0.0000   -0.0179    0.0000    0.0000   -0.0000   -0.0628   -0.0000    0.0000    0.0007   -0.0000
       23 MO     5py        0.0000    0.2763   -0.0000   -0.0000    0.0000    0.5028    0.0000   -0.0000    0.0006   -0.0000
       24 MO     6py        0.0000    0.0970   -0.0000   -0.0000    0.0000    0.2208    0.0000   -0.0000   -0.0059    0.0000
       25 MO     7py        0.0000    0.0373   -0.0000    0.0000    0.0000    0.0944    0.0000   -0.0000   -0.0065    0.0000
       26 MO     8py        0.0000    0.0037   -0.0000    0.0000    0.0000    0.0145    0.0000   -0.0000   -0.0031    0.0000
       27 MO     9py       -0.0000   -0.0023    0.0000    0.0000   -0.0000   -0.0024   -0.0000   -0.0000   -0.0012    0.0000
       28 MO    10py       -0.0000   -0.0007    0.0000    0.0000   -0.0000   -0.0015   -0.0000   -0.0000   -0.0001    0.0000
       29 MO     2pz       -0.0000   -0.0000    0.0000    0.0001   -0.0001   -0.0000    0.0000    0.0000   -0.0000   -0.0000
       30 MO     3pz       -0.0000   -0.0000   -0.0000    0.0043   -0.0059    0.0000    0.0000    0.0004   -0.0000   -0.0000
       31 MO     4pz        0.0000    0.0000    0.0000   -0.0628    0.0581   -0.0000   -0.0000   -0.0046    0.0000    0.0000
       32 MO     5pz       -0.0000   -0.0000   -0.0000    0.7142   -0.5701    0.0000    0.0000    0.0080   -0.0000   -0.0000
       33 MO     6pz       -0.0000   -0.0000   -0.0000    0.2755   -0.2376    0.0000    0.0000    0.0274   -0.0000   -0.0000
       34 MO     7pz       -0.0000   -0.0000   -0.0000    0.1105   -0.1006    0.0000    0.0000    0.0242   -0.0000   -0.0000
       35 MO     8pz       -0.0000   -0.0000   -0.0000    0.0134   -0.0150    0.0000    0.0000    0.0103   -0.0000   -0.0000
       36 MO     9pz        0.0000    0.0000    0.0000   -0.0053    0.0029   -0.0000   -0.0000    0.0036   -0.0000   -0.0000
       37 MO    10pz        0.0000    0.0000    0.0000   -0.0016    0.0017   -0.0000   -0.0000    0.0004   -0.0000   -0.0000
       38 MO     3d2-       0.0000   -0.0160    0.0000    0.0000   -0.0000   -0.0105   -0.0000   -0.0000    0.0113   -0.0000
       39 MO     4d2-      -0.0000    0.6284   -0.0000   -0.0000    0.0000    0.2971    0.0000    0.0000   -0.2607    0.0000
       40 MO     5d2-      -0.0000    0.3712   -0.0000   -0.0000    0.0000    0.1977    0.0000   -0.0000    0.1794   -0.0000
       41 MO     6d2-      -0.0000    0.1486   -0.0000   -0.0000    0.0000    0.0857    0.0000   -0.0000    0.5212   -0.0000
       42 MO     7d2-      -0.0000    0.0496   -0.0000   -0.0000    0.0000    0.0316    0.0000   -0.0000    0.5869   -0.0000
       43 MO     8d2-       0.0000   -0.0182    0.0000    0.0000    0.0000   -0.0080   -0.0000   -0.0000    0.3516   -0.0000
       44 MO     9d2-       0.0000   -0.0175    0.0000    0.0000   -0.0000   -0.0101   -0.0000   -0.0000    0.1131   -0.0000
       45 MO    10d2-       0.0000   -0.0043    0.0000    0.0000   -0.0000   -0.0022   -0.0000    0.0000   -0.0005    0.0000
       46 MO    11d2-       0.0000   -0.0010    0.0000    0.0000   -0.0000   -0.0008   -0.0000   -0.0000    0.0003   -0.0000
       47 MO     3d1-       0.0000    0.0124   -0.0000    0.0000   -0.0000   -0.0193   -0.0000   -0.0000   -0.0040    0.0000
       48 MO     4d1-      -0.0000   -0.5023    0.0000   -0.0000    0.0000    0.5960    0.0000    0.0000    0.1080   -0.0000
       49 MO     5d1-      -0.0000   -0.2934    0.0000   -0.0000    0.0000    0.3984    0.0000   -0.0000   -0.0751    0.0000
       50 MO     6d1-      -0.0000   -0.1173    0.0000   -0.0000    0.0000    0.1740    0.0000   -0.0000   -0.2166    0.0000
       51 MO     7d1-      -0.0000   -0.0388    0.0000   -0.0000    0.0000    0.0640    0.0000   -0.0000   -0.2437    0.0000
       52 MO     8d1-       0.0000    0.0143   -0.0000    0.0000   -0.0000   -0.0160   -0.0000   -0.0000   -0.1459    0.0000
       53 MO     9d1-       0.0000    0.0138   -0.0000    0.0000   -0.0000   -0.0205   -0.0000   -0.0000   -0.0469    0.0000
       54 MO    10d1-       0.0000    0.0034   -0.0000    0.0000   -0.0000   -0.0046   -0.0000    0.0000    0.0001   -0.0000
       55 MO    11d1-       0.0000    0.0007   -0.0000    0.0000   -0.0000   -0.0014   -0.0000    0.0000   -0.0001    0.0000
       56 MO     3d0       -0.0000   -0.0000   -0.0000   -0.0145   -0.0202    0.0000    0.0000   -0.0001    0.0000    0.0000
       57 MO     4d0        0.0000    0.0000    0.0000    0.5172    0.6340   -0.0000   -0.0000    0.0005   -0.0000   -0.0000
       58 MO     5d0        0.0000    0.0000    0.0000    0.3240    0.4088   -0.0000   -0.0000    0.0219    0.0000    0.0000
       59 MO     6d0        0.0000    0.0000    0.0000    0.1360    0.1746   -0.0000   -0.0000    0.0224    0.0000    0.0000
       60 MO     7d0        0.0000    0.0000    0.0000    0.0468    0.0634   -0.0000   -0.0000    0.0174    0.0000    0.0000
       61 MO     8d0       -0.0000    0.0000   -0.0000   -0.0146   -0.0170    0.0000    0.0000    0.0064    0.0000    0.0000
       62 MO     9d0       -0.0000   -0.0000   -0.0000   -0.0162   -0.0205    0.0000    0.0000    0.0003    0.0000    0.0000
       63 MO    10d0       -0.0000   -0.0000   -0.0000   -0.0038   -0.0047    0.0000    0.0000   -0.0005   -0.0000   -0.0000
       64 MO    11d0       -0.0000   -0.0000   -0.0000   -0.0009   -0.0014    0.0000    0.0000   -0.0002    0.0000    0.0000
       65 MO     3d1+       0.0082   -0.0000   -0.0124    0.0000   -0.0000    0.0000   -0.0193    0.0000    0.0000    0.0040
       66 MO     4d1+      -0.2648    0.0000    0.5023   -0.0000    0.0000   -0.0000    0.5960   -0.0000   -0.0000   -0.1080
       67 MO     5d1+      -0.1474    0.0000    0.2934    0.0000    0.0000   -0.0000    0.3984    0.0000    0.0000    0.0751
       68 MO     6d1+      -0.0573    0.0000    0.1173    0.0000    0.0000   -0.0000    0.1740    0.0000    0.0000    0.2166
       69 MO     7d1+      -0.0183    0.0000    0.0388    0.0000    0.0000   -0.0000    0.0640    0.0000    0.0000    0.2437
       70 MO     8d1+       0.0073   -0.0000   -0.0143    0.0000   -0.0000    0.0000   -0.0160    0.0000    0.0000    0.1459
       71 MO     9d1+       0.0067   -0.0000   -0.0138   -0.0000   -0.0000    0.0000   -0.0205    0.0000    0.0000    0.0469
       72 MO    10d1+       0.0015   -0.0000   -0.0034   -0.0000   -0.0000    0.0000   -0.0046   -0.0000   -0.0000   -0.0001
       73 MO    11d1+       0.0004   -0.0000   -0.0007    0.0000   -0.0000    0.0000   -0.0014   -0.0000    0.0000    0.0001
       74 MO     3d2+      -0.0127   -0.0000   -0.0160   -0.0000    0.0000   -0.0000    0.0105   -0.0000    0.0000    0.0113
       75 MO     4d2+       0.4681    0.0000    0.6284    0.0000   -0.0000    0.0000   -0.2971    0.0000   -0.0000   -0.2607
       76 MO     5d2+       0.2706    0.0000    0.3712    0.0000   -0.0000    0.0000   -0.1977    0.0000    0.0000    0.1794
       77 MO     6d2+       0.1070    0.0000    0.1486    0.0000   -0.0000    0.0000   -0.0857    0.0000    0.0000    0.5212
       78 MO     7d2+       0.0347    0.0000    0.0496    0.0000   -0.0000    0.0000   -0.0316    0.0000    0.0000    0.5869
       79 MO     8d2+      -0.0135   -0.0000   -0.0182   -0.0000    0.0000   -0.0000    0.0080    0.0000    0.0000    0.3516
       80 MO     9d2+      -0.0126   -0.0000   -0.0175   -0.0000    0.0000   -0.0000    0.0101    0.0000    0.0000    0.1131
       81 MO    10d2+      -0.0029   -0.0000   -0.0043   -0.0000    0.0000   -0.0000    0.0022   -0.0000   -0.0000   -0.0005
       82 MO    11d2+      -0.0007   -0.0000   -0.0010   -0.0000    0.0000   -0.0000    0.0008   -0.0000    0.0000    0.0003
       83 MO     4f3-      -0.0000    0.0000   -0.0000   -0.0000    0.0000    0.0000    0.0000   -0.0000   -0.0000    0.0000
       84 MO     5f3-       0.0000   -0.0000    0.0000    0.0000   -0.0000   -0.0000   -0.0000    0.0000    0.0000   -0.0000
       85 MO     6f3-       0.0000   -0.0000    0.0000   -0.0000   -0.0000   -0.0000   -0.0000    0.0000   -0.0000    0.0000
       86 MO     7f3-       0.0000   -0.0000    0.0000   -0.0000   -0.0000   -0.0000   -0.0000    0.0000   -0.0000    0.0000
       87 MO     8f3-      -0.0000    0.0000   -0.0000    0.0000   -0.0000    0.0000    0.0000   -0.0000    0.0000   -0.0000
       88 MO     9f3-      -0.0000    0.0000   -0.0000    0.0000   -0.0000    0.0000    0.0000   -0.0000   -0.0000    0.0000
       89 MO     4f2-      -0.0000    0.0062   -0.0000   -0.0000    0.0000    0.0046    0.0000    0.0000   -0.0050    0.0000
       90 MO     5f2-       0.0000   -0.0017    0.0000    0.0000   -0.0000   -0.0011   -0.0000    0.0000    0.0012   -0.0000
       91 MO     6f2-       0.0000   -0.0017    0.0000    0.0000   -0.0000   -0.0007   -0.0000   -0.0000    0.0006   -0.0000
       92 MO     7f2-       0.0000   -0.0009    0.0000    0.0000   -0.0000   -0.0008   -0.0000    0.0000   -0.0000    0.0000
       93 MO     8f2-      -0.0000    0.0004   -0.0000    0.0000   -0.0000    0.0001    0.0000    0.0000    0.0005   -0.0000
       94 MO     9f2-      -0.0000    0.0008   -0.0000   -0.0000    0.0000    0.0020    0.0000    0.0000   -0.0007    0.0000
       95 MO     4f1-      -0.0000   -0.0045    0.0000   -0.0000    0.0000    0.0047    0.0000   -0.0000    0.0021   -0.0000
       96 MO     5f1-       0.0000    0.0022   -0.0000    0.0000   -0.0000   -0.0019   -0.0000    0.0000   -0.0004    0.0000
       97 MO     6f1-       0.0000    0.0018   -0.0000    0.0000   -0.0000   -0.0016   -0.0000    0.0000   -0.0001    0.0000
       98 MO     7f1-       0.0000    0.0011   -0.0000    0.0000   -0.0000   -0.0010   -0.0000    0.0000    0.0002   -0.0000
       99 MO     8f1-      -0.0000   -0.0005    0.0000   -0.0000    0.0000    0.0005    0.0000   -0.0000   -0.0004    0.0000
      100 MO     9f1-      -0.0000   -0.0003    0.0000   -0.0000    0.0000    0.0005    0.0000    0.0000    0.0001   -0.0000
      101 MO     4f0        0.0000   -0.0000   -0.0000    0.0038    0.0029    0.0000   -0.0000   -0.0030    0.0000    0.0000
      102 MO     5f0       -0.0000    0.0000    0.0000   -0.0008   -0.0036    0.0000    0.0000   -0.0005   -0.0000   -0.0000
      103 MO     6f0       -0.0000    0.0000    0.0000   -0.0012   -0.0028    0.0000    0.0000    0.0011   -0.0000   -0.0000
      104 MO     7f0       -0.0000    0.0000    0.0000   -0.0003   -0.0018    0.0000    0.0000   -0.0003   -0.0000   -0.0000
      105 MO     8f0        0.0000   -0.0000   -0.0000    0.0004    0.0010   -0.0000   -0.0000   -0.0002    0.0000    0.0000
      106 MO     9f0       -0.0000   -0.0000   -0.0000   -0.0005   -0.0009    0.0000    0.0000   -0.0003    0.0000    0.0000
      107 MO     4f1+      -0.0007    0.0000    0.0045    0.0000    0.0000   -0.0000    0.0047   -0.0000   -0.0000   -0.0021
      108 MO     5f1+       0.0021   -0.0000   -0.0022   -0.0000   -0.0000    0.0000   -0.0019   -0.0000    0.0000    0.0004
      109 MO     6f1+       0.0012   -0.0000   -0.0018   -0.0000   -0.0000    0.0000   -0.0016   -0.0000    0.0000    0.0001
      110 MO     7f1+       0.0010   -0.0000   -0.0011   -0.0000   -0.0000    0.0000   -0.0010   -0.0000   -0.0000   -0.0002
      111 MO     8f1+      -0.0004    0.0000    0.0005    0.0000    0.0000   -0.0000    0.0005    0.0000    0.0000    0.0004
      112 MO     9f1+      -0.0000    0.0000    0.0003    0.0000    0.0000   -0.0000    0.0005   -0.0000   -0.0000   -0.0001
      113 MO     4f2+       0.0054    0.0000    0.0062    0.0000   -0.0000    0.0000   -0.0046    0.0000   -0.0000   -0.0050
      114 MO     5f2+      -0.0016   -0.0000   -0.0017    0.0000    0.0000   -0.0000    0.0011   -0.0000    0.0000    0.0012
      115 MO     6f2+      -0.0010   -0.0000   -0.0017   -0.0000    0.0000   -0.0000    0.0007   -0.0000    0.0000    0.0006
      116 MO     7f2+      -0.0009   -0.0000   -0.0009    0.0000    0.0000   -0.0000    0.0008   -0.0000   -0.0000   -0.0000
      117 MO     8f2+       0.0002    0.0000    0.0004   -0.0000   -0.0000    0.0000   -0.0001    0.0000    0.0000    0.0005
      118 MO     9f2+       0.0012    0.0000    0.0008    0.0000   -0.0000    0.0000   -0.0020    0.0000   -0.0000   -0.0007
      119 MO     4f3+       0.0000    0.0000    0.0000    0.0009    0.0022    0.0000   -0.0000   -0.0021   -0.0000   -0.0000
      120 MO     5f3+      -0.0000   -0.0000   -0.0000   -0.0001    0.0001   -0.0000    0.0000   -0.0002    0.0000    0.0000
      121 MO     6f3+      -0.0000   -0.0000   -0.0000    0.0001   -0.0001   -0.0000    0.0000    0.0009    0.0000    0.0000
      122 MO     7f3+      -0.0000   -0.0000   -0.0000   -0.0001   -0.0001   -0.0000    0.0000   -0.0001   -0.0000   -0.0000
      123 MO     8f3+       0.0000    0.0000    0.0000   -0.0000   -0.0000    0.0000   -0.0000   -0.0002    0.0000    0.0000
      124 MO     9f3+       0.0000    0.0000    0.0000    0.0001    0.0009   -0.0000   -0.0000   -0.0002    0.0000    0.0000
      125 MO     5g4-       0.0000   -0.0000    0.0000   -0.0000    0.0000    0.0007    0.0000   -0.0000    0.0001   -0.0000
      126 MO     6g4-      -0.0000   -0.0000    0.0000   -0.0000   -0.0000   -0.0001   -0.0000    0.0000   -0.0000    0.0000
      127 MO     7g4-       0.0000    0.0001   -0.0000    0.0000    0.0000    0.0002    0.0000   -0.0000    0.0000   -0.0000
      128 MO     8g4-      -0.0000   -0.0000    0.0000   -0.0000    0.0000    0.0001    0.0000   -0.0000   -0.0000    0.0000
      129 MO     5g3-       0.0000   -0.0000    0.0000    0.0000    0.0000   -0.0000   -0.0000   -0.0000    0.0000   -0.0000
      130 MO     6g3-       0.0000    0.0000    0.0000    0.0000   -0.0000   -0.0000   -0.0000    0.0000    0.0000   -0.0000
      131 MO     7g3-       0.0000   -0.0000    0.0000    0.0000   -0.0000   -0.0000   -0.0000   -0.0000    0.0000   -0.0000
      132 MO     8g3-       0.0000    0.0000   -0.0000   -0.0000   -0.0000   -0.0000   -0.0000    0.0000    0.0000   -0.0000
      133 MO     5g2-       0.0000   -0.0006    0.0000    0.0000   -0.0000   -0.0006   -0.0000    0.0000    0.0005   -0.0000
      134 MO     6g2-       0.0000   -0.0003    0.0000    0.0000   -0.0000   -0.0002   -0.0000    0.0000    0.0001   -0.0000
      135 MO     7g2-       0.0000   -0.0002    0.0000    0.0000   -0.0000   -0.0001   -0.0000    0.0000    0.0001   -0.0000
      136 MO     8g2-       0.0000   -0.0001    0.0000    0.0000   -0.0000   -0.0002   -0.0000    0.0000    0.0000   -0.0000
      137 MO     5g1-       0.0000    0.0015   -0.0000    0.0000   -0.0000   -0.0005   -0.0000   -0.0000   -0.0005    0.0000
      138 MO     6g1-       0.0000    0.0002   -0.0000    0.0000   -0.0000   -0.0005   -0.0000    0.0000   -0.0000    0.0000
      139 MO     7g1-       0.0000    0.0005   -0.0000    0.0000   -0.0000   -0.0001   -0.0000   -0.0000   -0.0001    0.0000
      140 MO     8g1-      -0.0000    0.0001   -0.0000    0.0000   -0.0000   -0.0000   -0.0000    0.0000   -0.0000    0.0000
      141 MO     5g0       -0.0000    0.0000    0.0000   -0.0002   -0.0022    0.0000    0.0000   -0.0000    0.0000    0.0000
      142 MO     6g0       -0.0000   -0.0000    0.0000   -0.0006   -0.0004   -0.0000    0.0000    0.0000   -0.0000    0.0000
      143 MO     7g0       -0.0000   -0.0000   -0.0000    0.0002   -0.0007    0.0000    0.0000   -0.0000    0.0000    0.0000
      144 MO     8g0       -0.0000   -0.0000    0.0000   -0.0003   -0.0003    0.0000    0.0000    0.0000   -0.0000   -0.0000
      145 MO     5g1+       0.0011   -0.0000   -0.0015   -0.0000   -0.0000    0.0000   -0.0005    0.0000    0.0000    0.0005
      146 MO     6g1+       0.0000   -0.0000   -0.0002   -0.0000   -0.0000    0.0000   -0.0005   -0.0000    0.0000    0.0000
[...]
         2    6       6.53836210E-02  2.26042863E+07  7.94794754E-02  2.48113178E-05  2.26042864E+07
         2    8       1.36179235E-01  3.52220452E-03  4.86159000E+07  2.66670070E-13  4.86159000E+07
         2   10       1.36179468E-01  4.86159929E+07  3.52251069E-03  3.09909580E-05  4.86159929E+07
         2   12       1.45525442E-01  1.55687930E-04  7.24566508E-13  5.74772264E+07  5.74772264E+07
         2   14       2.75473508E-01  2.33037916E-03  7.79077179E-11  1.21424373E+08  1.21424373E+08
         2   16       1.95758515E-01  6.81640341E-04  8.73116739E+07  1.00951683E-10  8.73116739E+07
         2   18       1.95758626E-01  8.73117428E+07  6.81710770E-04  4.62111481E-03  8.73117428E+07
         3    7       7.39735787E-04  4.89220760E+01  2.24945598E-07  1.80708572E+01  6.69929335E+01
         3    9       5.40201223E-04  2.24952313E-07  4.89230174E+01  4.66065770E-08  4.89230177E+01
         3   11       5.28682920E-04  3.04662658E-06  8.66461136E+02  2.62109902E-18  8.66461139E+02
         3   13       5.75615303E-04  1.16719290E-05  3.31933643E+03  1.23267727E-14  3.31933644E+03
         3   15       6.44619907E-03  2.62498766E+04  8.38053917E-05  1.48692162E+04  4.11190929E+04
         3   17       4.11517621E-03  8.38062124E-05  2.62499841E+04  5.73258240E-05  2.62499842E+04
         4    8       7.39735787E-04  4.89220760E+01  2.24945598E-07  1.80708572E+01  6.69929335E+01
         4   10       5.40201223E-04  2.24952313E-07  4.89230174E+01  4.66065770E-08  4.89230177E+01
         4   12       5.28682920E-04  3.04662658E-06  8.66461136E+02  2.62109902E-18  8.66461139E+02
         4   14       5.75615303E-04  1.16719290E-05  3.31933643E+03  1.23267727E-14  3.31933644E+03
         4   16       6.44619907E-03  2.62498766E+04  8.38053917E-05  1.48692162E+04  4.11190929E+04
         4   18       4.11517621E-03  8.38062124E-05  2.62499841E+04  5.73258240E-05  2.62499842E+04
         5    7       5.40198087E-04  2.24945023E-07  4.89219032E+01  4.66039828E-08  4.89219035E+01
         5    9       7.39739272E-04  4.89226821E+01  2.24952037E-07  1.80710678E+01  6.69937500E+01
         5   11       5.28692950E-04  8.66476608E+02  3.04647591E-06  1.47951265E-10  8.66476611E+02
         5   13       5.75577847E-04  3.31911846E+03  1.16707107E-05  1.04411833E-07  3.31911847E+03
         5   15       4.11519727E-03  8.38074805E-05  2.62500553E+04  5.73259073E-05  2.62500555E+04
         5   17       6.44621258E-03  2.62501095E+04  8.38064656E-05  1.48691218E+04  4.11192314E+04
         6    8       5.40198087E-04  2.24945023E-07  4.89219032E+01  4.66039828E-08  4.89219035E+01
         6   10       7.39739272E-04  4.89226821E+01  2.24952037E-07  1.80710678E+01  6.69937500E+01
         6   12       5.28692950E-04  8.66476608E+02  3.04647591E-06  1.47951265E-10  8.66476611E+02
         6   14       5.75577847E-04  3.31911846E+03  1.16707107E-05  1.04411833E-07  3.31911847E+03
         6   16       4.11519727E-03  8.38074805E-05  2.62500553E+04  5.73259073E-05  2.62500555E+04
         6   18       6.44621258E-03  2.62501095E+04  8.38064656E-05  1.48691218E+04  4.11192314E+04
         7   11       5.24711916E-03  3.64575554E-07  5.03172447E+03  2.29032956E-16  5.03172447E+03
         7   13       3.01685996E-03  9.64723343E-07  1.33098616E+04  6.55218950E-18  1.33098616E+04
         7   15       2.84061979E-03  1.39198924E+04  4.55011740E-07  1.39078365E+02  1.40589708E+04
         7   17       2.81246135E-03  4.55101907E-07  1.39196364E+04  1.78204817E-08  1.39196364E+04
         8   12       5.24711916E-03  3.64575554E-07  5.03172447E+03  2.29032956E-16  5.03172447E+03
         8   14       3.01685996E-03  9.64723343E-07  1.33098616E+04  6.55218950E-18  1.33098616E+04
         8   16       2.84061979E-03  1.39198924E+04  4.55011740E-07  1.39078365E+02  1.40589708E+04
         8   18       2.81246135E-03  4.55101907E-07  1.39196364E+04  1.78204817E-08  1.39196364E+04
         9   11       5.24710402E-03  5.03169105E+03  3.64587730E-07  1.55195989E-08  5.03169105E+03
         9   13       3.01676909E-03  1.33094374E+04  9.64207259E-07  1.11291750E-10  1.33094374E+04
         9   15       2.81252897E-03  4.55319157E-07  1.39199190E+04  1.77823522E-08  1.39199190E+04
         9   17       2.84064983E-03  1.39200560E+04  4.55107017E-07  1.39069526E+02  1.40591256E+04
        10   12       5.24710402E-03  5.03169105E+03  3.64587730E-07  1.55195989E-08  5.03169105E+03
        10   14       3.01676909E-03  1.33094374E+04  9.64207259E-07  1.11291750E-10  1.33094374E+04
        10   16       2.81252897E-03  4.55319157E-07  1.39199190E+04  1.77823522E-08  1.39199190E+04
        10   18       2.84064983E-03  1.39200560E+04  4.55107017E-07  1.39069526E+02  1.40591256E+04
        11   13       8.08149383E-04  6.82386443E-10  5.64403893E-18  1.01587051E+03  1.01587051E+03
        12   14       8.08149383E-04  6.82386443E-10  5.64403893E-18  1.01587051E+03  1.01587051E+03
        13   15       6.49092461E-04  7.82787340E-11  1.00221622E+01  6.41178737E-17  1.00221622E+01
        13   17       6.49116623E-04  1.00229099E+01  7.82053765E-11  2.25054735E-09  1.00229099E+01
        14   16       6.49092461E-04  7.82787340E-11  1.00221622E+01  6.41178737E-17  1.00221622E+01
        14   18       6.49116623E-04  1.00229099E+01  7.82053765E-11  2.25054735E-09  1.00229099E+01
     -----------------------------------------------------------------------------------------------
--

++ Velocity transition strengths (SO states):
   ------------------------------------------
    for osc. strength at least    1.0000000000000001E-005

      From   To        Osc. strength     Einstein coefficients Ax, Ay, Az (sec-1)    Total A (sec-1)
     -----------------------------------------------------------------------------------------------
         1    3       6.09307509E-02  7.40673268E-02  2.10649212E+07  1.63116911E-13  2.10649213E+07
         1    5       6.09305383E-02  2.10648493E+07  7.40666098E-02  2.26170457E-05  2.10648494E+07
         1    7       1.25862064E-01  3.25534707E-03  4.49328330E+07  2.34481821E-13  4.49328330E+07
         1    9       1.25862273E-01  4.49329164E+07  3.25565004E-03  2.73320488E-05  4.49329164E+07
         1   11       1.35336830E-01  1.46449200E-04  7.01285008E-13  5.34532833E+07  5.34532833E+07
         1   13       2.52841274E-01  2.17638224E-03  7.24867744E-11  1.11448829E+08  1.11448829E+08
         1   15       1.82771269E-01  6.36419739E-04  8.15194217E+07  9.28526020E-11  8.15194217E+07
         1   17       1.82771364E-01  8.15194818E+07  6.36480613E-04  4.25367126E-03  8.15194818E+07
         2    4       6.09307509E-02  7.40673268E-02  2.10649212E+07  1.63116911E-13  2.10649213E+07
         2    6       6.09305383E-02  2.10648493E+07  7.40666098E-02  2.26170457E-05  2.10648494E+07
         2    8       1.25862064E-01  3.25534707E-03  4.49328330E+07  2.34481821E-13  4.49328330E+07
         2   10       1.25862273E-01  4.49329164E+07  3.25565004E-03  2.73320488E-05  4.49329164E+07
         2   12       1.35336830E-01  1.46449200E-04  7.01285008E-13  5.34532833E+07  5.34532833E+07
         2   14       2.52841274E-01  2.17638224E-03  7.24867744E-11  1.11448829E+08  1.11448829E+08
         2   16       1.82771269E-01  6.36419739E-04  8.15194217E+07  9.28526020E-11  8.15194217E+07
         2   18       1.82771364E-01  8.15194818E+07  6.36480613E-04  4.25367126E-03  8.15194818E+07
         3    7       6.23115359E-02  3.84274925E+03  1.76694601E-05  1.80041031E+03  5.64315958E+03
         3    9       4.24312446E-02  1.76695264E-05  3.84277496E+03  4.64350288E-06  3.84277499E+03
         3   11       3.46033180E-03  1.99405630E-05  5.67117517E+03  7.09963369E-16  5.67117519E+03
         3   13       1.28373051E-03  2.60290658E-05  7.40277100E+03  5.94221828E-14  7.40277103E+03
         3   15       6.49272242E-03  2.62180527E+03  8.37047653E-06  3.87941953E+04  4.14160006E+04
         3   17       4.11009958E-04  8.36966295E-06  2.62176909E+03  1.49562817E-04  2.62176924E+03
         4    8       6.23115359E-02  3.84274925E+03  1.76694601E-05  1.80041031E+03  5.64315958E+03
         4   10       4.24312446E-02  1.76695264E-05  3.84277496E+03  4.64350288E-06  3.84277499E+03
         4   12       3.46033180E-03  1.99405630E-05  5.67117517E+03  7.09963369E-16  5.67117519E+03
         4   14       1.28373051E-03  2.60290658E-05  7.40277100E+03  5.94221828E-14  7.40277103E+03
         4   16       6.49272242E-03  2.62180527E+03  8.37047653E-06  3.87941953E+04  4.14160006E+04
         4   18       4.11009958E-04  8.36966295E-06  2.62176909E+03  1.49562817E-04  2.62176924E+03
         5    7       4.24316703E-02  1.76693224E-05  3.84274831E+03  4.64340272E-06  3.84274833E+03
         5    9       6.23111823E-02  3.84276752E+03  1.76695304E-05  1.80040222E+03  5.64316976E+03
         5   11       3.46029903E-03  5.67111513E+03  1.99408131E-05  6.25617471E-08  5.67111515E+03
         5   13       1.28375557E-03  7.40291109E+03  2.60295584E-05  8.31354053E-07  7.40291112E+03
         5   15       4.11007403E-04  8.36974253E-06  2.62174648E+03  1.49562812E-04  2.62174664E+03
         5   17       6.49269439E-03  2.62170455E+03  8.36977837E-06  3.87941699E+04  4.14158745E+04
         6    8       4.24316703E-02  1.76693224E-05  3.84274831E+03  4.64340272E-06  3.84274833E+03
         6   10       6.23111823E-02  3.84276752E+03  1.76695304E-05  1.80040222E+03  5.64316976E+03
         6   12       3.46029903E-03  5.67111513E+03  1.99408131E-05  6.25617471E-08  5.67111515E+03
         6   14       1.28375557E-03  7.40291109E+03  2.60295584E-05  8.31354053E-07  7.40291112E+03
         6   16       4.11007403E-04  8.36974253E-06  2.62174648E+03  1.49562812E-04  2.62174664E+03
         6   18       6.49269439E-03  2.62170455E+03  8.36977837E-06  3.87941699E+04  4.14158745E+04
         7   11       8.12235490E-04  5.64111421E-08  7.78895861E+02  5.05353003E-20  7.78895861E+02
         7   13       1.58706909E-03  5.07186180E-07  7.00189720E+03  4.13308881E-14  7.00189720E+03
         7   15       1.37882706E-02  1.67015090E+04  5.46120375E-07  5.15404882E+04  6.82419972E+04
         7   17       3.37451680E-03  5.46062832E-07  1.67014598E+04  6.58823272E-06  1.67014598E+04
         8   12       8.12235490E-04  5.64111421E-08  7.78895861E+02  5.05353003E-20  7.78895861E+02
         8   14       1.58706909E-03  5.07186180E-07  7.00189720E+03  4.13308881E-14  7.00189720E+03
         8   16       1.37882706E-02  1.67015090E+04  5.46120375E-07  5.15404882E+04  6.82419972E+04
         8   18       3.37451680E-03  5.46062832E-07  1.67014598E+04  6.58823272E-06  1.67014598E+04
         9   11       8.12240518E-04  7.78897758E+02  5.64338292E-08  1.38853698E-09  7.78897758E+02
         9   13       1.58715103E-03  7.00224645E+03  5.07495477E-07  1.89082768E-06  7.00224645E+03
         9   15       3.37454621E-03  5.45982443E-07  1.67015428E+04  6.58839605E-06  1.67015428E+04
         9   17       1.37882530E-02  1.67012279E+04  5.46040422E-07  5.15407119E+04  6.82419398E+04
        10   12       8.12240518E-04  7.78897758E+02  5.64338292E-08  1.38853698E-09  7.78897758E+02
        10   14       1.58715103E-03  7.00224645E+03  5.07495477E-07  1.89082768E-06  7.00224645E+03
        10   16       3.37454621E-03  5.45982443E-07  1.67015428E+04  6.58839605E-06  1.67015428E+04
        10   18       1.37882530E-02  1.67012279E+04  5.46040422E-07  5.15407119E+04  6.82419398E+04
        11   13       3.00776511E-02  6.31150506E-07  1.46031369E-14  3.78087338E+04  3.78087338E+04
        11   15       1.26142011E-02  1.52745525E-07  1.95660212E+04  3.67641083E-14  1.95660212E+04
        11   17       1.26142501E-02  1.95661701E+04  1.52758195E-07  1.73596752E-06  1.95661701E+04
        12   14       3.00776511E-02  6.31150506E-07  1.46031369E-14  3.78087338E+04  3.78087338E+04
        12   16       1.26142011E-02  1.52745525E-07  1.95660212E+04  3.67641083E-14  1.95660212E+04
        12   18       1.26142501E-02  1.95661701E+04  1.52758195E-07  1.73596752E-06  1.95661701E+04
        13   15       2.99320762E-02  3.60818171E-09  4.62160914E+02  6.53048573E-17  4.62160914E+02
        13   17       2.99316467E-02  4.62171558E+02  3.60783927E-09  8.33987242E-12  4.62171558E+02
        14   16       2.99320762E-02  3.60818171E-09  4.62160914E+02  6.53048573E-17  4.62160914E+02
        14   18       2.99316467E-02  4.62171558E+02  3.60783927E-09  8.33987242E-12  4.62171558E+02
     -----------------------------------------------------------------------------------------------
--

++ Length and velocity gauge comparison (SO states):

 --------------------------------------------------
 A comparison between the dipole oscillator strengths in 
 length and velocity gauge will be performed

 All dipole oscillator differences above the tolerance of   0.10000000000000001       will be printed 

 Due to basis set deficiency these oscillator may be problematic 

 The tolerance is defined as ABS(1-O_l/O_v) 
 O_l : dipole oscillator strength in length gauge
 O_p : dipole oscillator strength in velocity gauge
 --------------------------------------------------

  Problematic transitions have been found

      From   To       Difference (%) Osc. st. (len.) Osc. st. (vel.)
     ---------------------------------------------------------------
         3    7            98.812843  7.39735787E-04  6.23115359E-02
         3    9            98.726879  5.40201223E-04  4.24312446E-02
         3   11            84.721612  5.28682920E-04  3.46033180E-03
         3   13            55.160737  5.75615303E-04  1.28373051E-03
         3   17           901.235161  4.11517621E-03  4.11009958E-04
         4    8            98.812843  7.39735787E-04  6.23115359E-02
         4   10            98.726879  5.40201223E-04  4.24312446E-02
         4   12            84.721612  5.28682920E-04  3.46033180E-03
         4   14            55.160737  5.75615303E-04  1.28373051E-03
         4   18           901.235161  4.11517621E-03  4.11009958E-04
         5    7            98.726899  5.40198087E-04  4.24316703E-02
         5    9            98.812831  7.39739272E-04  6.23111823E-02
         5   11            84.721177  5.28692950E-04  3.46029903E-03
         5   13            55.164530  5.75577847E-04  1.28375557E-03
         5   15           901.246509  4.11519727E-03  4.11007403E-04
         6    8            98.726899  5.40198087E-04  4.24316703E-02
         6   10            98.812831  7.39739272E-04  6.23111823E-02
         6   12            84.721177  5.28692950E-04  3.46029903E-03
         6   14            55.164530  5.75577847E-04  1.28375557E-03
         6   16           901.246509  4.11519727E-03  4.11007403E-04
         7   11           546.009590  5.24711916E-03  8.12235490E-04
         7   13            90.090021  3.01685996E-03  1.58706909E-03
         7   15            79.398288  2.84061979E-03  1.37882706E-02
         7   17            16.655879  2.81246135E-03  3.37451680E-03
         8   12           546.009590  5.24711916E-03  8.12235490E-04
         8   14            90.090021  3.01685996E-03  1.58706909E-03
         8   16            79.398288  2.84061979E-03  1.37882706E-02
         8   18            16.655879  2.81246135E-03  3.37451680E-03
         9   11           546.003726  5.24710402E-03  8.12240518E-04
         9   13            90.074482  3.01676909E-03  1.58715103E-03
         9   15            16.654602  2.81252897E-03  3.37454621E-03
         9   17            79.398044  2.84064983E-03  1.37882530E-02
        10   12           546.003726  5.24710402E-03  8.12240518E-04
        10   14            90.074482  3.01676909E-03  1.58715103E-03
        10   16            16.654602  2.81252897E-03  3.37454621E-03
        10   18            79.398044  2.84064983E-03  1.37882530E-02
        11   13            97.313123  8.08149383E-04  3.00776511E-02
        11   15      --------------- below threshold  1.26142011E-02
        11   17      --------------- below threshold  1.26142501E-02
        12   14            97.313123  8.08149383E-04  3.00776511E-02
        12   16      --------------- below threshold  1.26142011E-02
        12   18      --------------- below threshold  1.26142501E-02
        13   15            97.831449  6.49092461E-04  2.99320762E-02
        13   17            97.831337  6.49116623E-04  2.99316467E-02
        14   16            97.831449  6.49092461E-04  2.99320762E-02
        14   18            97.831337  6.49116623E-04  2.99316467E-02
     ---------------------------------------------------------------

 Number of problematic transitions =                    46

--

 Electric-dipole - electric-octupole not included
++ I/O STATISTICS
 
  I. General I/O information
  - - - - - - - - - - - - - - - - - - - - - - - - - - - - - - - - - - - - - - - - - - -
  Unit  Name          Flsize      Write/Read            MBytes           Write/Read
                      (MBytes)       Calls              In/Out           Time, sec.
  - - - - - - - - - - - - - - - - - - - - - - - - - - - - - - - - - - - - - - - - - - -
   1  SCRATCH           0.00 .       9/      45 .      0.0/      0.0 .       0/       0
   2  ANNI              0.00 .       0/       0 .      0.0/      0.0 .       0/       0
   3  RUNFILE          14.89 .     322/   10517 .      2.3/     76.3 .       0/       0
   4  ONEINT            5.68 .       0/   24849 .      0.0/   3743.6 .       0/       0
   5  JOBIPH            6.59 .       0/      92 .      0.0/      0.8 .       0/       0
   6  ORDINT          529.03 .       1/    4233 .      0.0/   1058.0 .       0/       0
  - - - - - - - - - - - - - - - - - - - - - - - - - - - - - - - - - - - - - - - - - - -
   *  TOTAL           556.21 .     332/   39736 .      2.3/   4878.7 .       0/       0
  - - - - - - - - - - - - - - - - - - - - - - - - - - - - - - - - - - - - - - - - - - -
 
  II. I/O Access Patterns
  - - - - - - - - - - - - - - - - - - - -
  Unit  Name               % of random
                         Write/Read calls
  - - - - - - - - - - - - - - - - - - - -
   1  SCRATCH             88.9/ 100.0
   2  ANNI                 0.0/   0.0
   3  RUNFILE             28.6/  10.8
   4  ONEINT               0.0/  15.5
   5  JOBIPH               0.0/  76.1
   6  ORDINT             100.0/   0.0
  - - - - - - - - - - - - - - - - - - - -
--
--- Stop Module: rassi at Thu Jan  9 20:16:16 2025 /rc=_RC_ALL_IS_WELL_ ---
*** files: xmldump
    saved to directory /home4/s4752295/Internship/Initial_simulations/Point_charge_model/1_electron/active_space_9_non_rel/Mo/varying_bond_length
--- Module rassi spent 4 seconds ---

.##################.
.# Happy landing! #.
.##################.

    Timing: Wall=79.60 User=60.91 System=15.08

###############################################################################
Hbrk Cluster
Job 14548080 for user s4752295
Finished at: Thu Jan  9 20:16:17 CET 2025

Job details:
============

Job ID                         : 14548080
Name                           : Mo_no_c_light
User                           : s4752295
Partition                      : regularmedium
Nodes                          : node99
Number of Nodes                : 1
Cores                          : 1
Number of Tasks                : 1
State                          : RUNNING  
Submit                         : 2025-01-09T20:14:50
Start                          : 2025-01-09T20:14:51
End                            : --
Reserved walltime              : 15:00:00
Used walltime                  : 00:01:26
Used CPU time                  : -- 
% User (Computation)           : --
% System (I/O)                 : --
Total memory reserved          : 25000M
Maximum memory used            : --

Acknowledgements:
=================

Please see this page for information about acknowledging Hbrk in your publications:

https://wiki.hpc.rug.nl/habrok/introduction/scientific_output

################################################################################
