   This run of MOLCAS is using the pymolcas driver

                             OPE
                             OPE          NMOL  CASOP  ENMOLC A   SO
                 OPE        NMOLC        AS  OP EN  MO LC     AS  OP
                OPENM       OL CA        SO  PE NM  OL CA     SOP EN
                OP EN      MO   LC       AS  OP ENMOL  CASO   PENMOL
                OP  EN     MO   LC       AS  OP EN     MO     LC ASO
               OP   E  NMOL  C  AS       OP  EN MO     LC     AS  OP
               OP  E   NMO   LC AS        OPEN  MO     LCASOP EN   M
               O  PEN   MO  LCA  SO
            OPE   NMO   L   CAS    OP
        OPENMOL  CASOP     ENMOL   CASOPE
     OPENMOLCA   SOPENMOLCASOPEN   MOLCASOPE
    OPENMOLCAS   OP           EN   MOL    CAS
    OPENMOLCAS       OP  ENM        O     LCA
    OPENMOLCAS    OPEN  MOLCASO     P  E  NMO
    OPENMOLCAS     OP               E  N  MOL
    OPENMOLCA   SO           PENM   O  L  CAS    OPEN    MO    LCAS
    OPENMOLCA   SOP           ENM   O  L  CAS   OP  EN  MOLC  AS   O
    OPENMOLCA   SOPE           NM      O  LCA   S      OP  EN MO
    OPENMOLC                AS         O  PEN   M      OL  CA  SOPE
    OPENMO        LCASOPE  NMOL        C  ASO   P      ENMOLC     AS
    OPE     NMO      LCA  SO     P     E   NM   OL  CA SO  PE N   MO
          OPENMOLCA            SOPE   NMO        LCAS  O    P  ENMO
     OPENMOLCASOPENMOLCASOPENMOLCASOPENMOLCA
        OPENMOLCASOPENMOLCASOPENMOLCASOPE
            OPENMOLCASOPENMOLCASOPENM
               OPENMOLCASOPENMOLCA        version: o91e1abe7de707b ?
                   OPENMOLCASO
                       OPE                tag:

 OpenMolcas is free software; you can redistribute it and/or modify it
 under the terms of the GNU Lesser General Public License version 2.1.
 OpenMolcas is distributed in the hope that it will be useful, but it
 is provided "as is" and without any express or implied warranties.
 For more details see the full text of the license in the file
 LICENSE or in <http://www.gnu.org/licenses/>.

                 Copyright (C) The OpenMolcas Authors
           For the author list and the recommended citation,
                   consult the file CONTRIBUTORS.md

           *************************************************
           * pymolcas version py2.10                       *
           *   build 3068ae8b88c9345ec6cfef6fef7f1169      *
           *   (after the EMIL interpreter by V. Veryazov) *
           *************************************************

configuration info
------------------
Host name: login1 (Linux)
C Compiler ID: GNU
C flags: -std=gnu99
Fortran Compiler ID: GNU
Fortran flags: -fno-aggressive-loop-optimizations -cpp -fdefault-integer-8 -fmax-stack-var-size=1048576
Definitions: _MOLCAS_;_I8_;_LINUX_;_MKL_
Parallel: OFF (GA=OFF)


   ----------------------------------------------------------------------------------------------------------------------------------------------
  |
  |           Project: molybdenum_so_cf
  |    Submitted from: /home4/s4752295/Internship/Initial_simulations/Point_charge_model/1_electron/active_space_9_non_rel/Mo/varying_bond_length
  |      Scratch area: /tmp/molybdenum_so_cf
  |   Save outputs to: /home4/s4752295/Internship/Initial_simulations/Point_charge_model/1_electron/active_space_9_non_rel/Mo/varying_bond_length
  |            Molcas: /home4/s4752295/Internship/Molcas/recomp_try/OpenMolcas-master/build
  |
  | Scratch area is empty
  |
  |    MOLCAS_DRIVER = /home4/s4752295/Internship/Molcas/bin/pymolcas
  |    MOLCAS_NPROCS = 1
  |    MOLCAS_SOURCE = /home4/s4752295/Internship/Molcas/recomp_try/OpenMolcas-master
  | MOLCAS_STRUCTURE = 0
  |
   ----------------------------------------------------------------------------------------------------------------------------------------------

++ ---------   Input file   ---------

&SEWARD
AMFi

CLIG
$R

Basis Set
Mo.ANO-rcc.Roos.21s18p13d6f4g2h.10s9p9d6f4g2h.
Spherical d
Mo            0.0       0.0     0.0
End of Basis

Xfield

4
0.000000,  0.000000,  0.236250  -1.0
0.204599,  0.000000, -0.118125  -1.0
-0.102299,  0.177187, -0.118125 -1.0
-0.102299, -0.177187, -0.118125 -1.0

End of input

&SCF
Occupied
18
Iterations
   50  100
End of Input

&RASSCF
LumOrb
Symmetry
1
Spin
2
Nactel
1 0 0
CIRoot
9 9 1
inactive
18
ras2
9
End of Input

>>> COPY molybdenum_so_cf.JobIph $SLURM_SUBMIT_DIR/molybdenum_so_cf.doublet.JobIph

>>> COPY $SLURM_SUBMIT_DIR/molybdenum_so_cf.doublet.JobIph ./JOB002

&RASSI
NROFJobIph
1 All
SpinOrbit
End of Input

EOF

-- ----------------------------------

--- Start Module: seward at Thu Jan  9 20:54:04 2025 ---

()()()()()()()()()()()()()()()()()()()()()()()()()()()()()()()()()()()()()()()()()()()()()()()()()()

                                              &SEWARD

                                   only a single process is used
                       available to each process: 4.1 GB of memory, 1 thread?
                                            pid: 384955
()()()()()()()()()()()()()()()()()()()()()()()()()()()()()()()()()()()()()()()()()()()()()()()()()()

 The speed of LIGHT in this CALCULATION =   137.03599917700001     
               SEWARD will generate:
                  Multipole Moment integrals up to order  2
                  Kinetic Energy integrals
                  Nuclear Attraction integrals (point charge)
                  One-Electron Hamiltonian integrals
                  Velocity integrals
                  Relativistic Douglas-Kroll-Hess integrals:
                    - Parametrization         : EXP
                    - DKH order of Hamiltonian: 2
                    - DKH order of Properties : 0
                         - multipole moment operators
                         - electric potential operators
                         - contact operators
                  External field from     4 point(s) added to the one-electron Hamiltonian
                  Orbital angular momentum around ( 0.0000  0.0000  0.0000 )
                  Velocity quadrupole around ( 0.0000  0.0000  0.0000 )
                  Atomic mean-field integrals
                  Two-Electron Repulsion integrals

                   Integrals are discarded if absolute value <: 0.10E-13
                   Integral cutoff threshold is set to       <: 0.10E-15

++    Symmetry information:
      ---------------------

                    Character Table for C1 

                             E  
                    a        1  x, y, xy, Rz, z, xz, Ry, yz, Rx, I
--


++    Basis set information:
      ----------------------


      Basis set label: MO.ANO-RCC.ROOS.21S18P13D6F4G2H.10S9P9D6F4G2H......

      Electronic valence basis set:
      ------------------
      Associated Effective Charge  42.000000 au
      Associated Actual Charge     42.000000 au
      Nuclear Model: Point charge

      Shell  nPrim  nBasis  Cartesian Spherical Contaminant
         s      21      10        X                  
         p      18       9        X                  
         d      13       9                 X         
         f       6       6                 X         
         g       4       4                 X         
         h       2       2                 X         
--


++    Molecular structure info:
      -------------------------

                    ************************************************ 
                    **** Cartesian Coordinates / Bohr, Angstrom **** 
                    ************************************************ 

     Center  Label                x              y              z                     x              y              z
        1      MO               0.000000       0.000000       0.000000              0.000000       0.000000       0.000000
--


++    Operator info:
      --------------


  Net charge from external field:   -4.0000000000000000     
--


            Nuclear Potential Energy              0.00000000 au

                    Nuclear-External Field Potential Energy    -711.11151417 au
                    External Field Potential Energy              15.79705083 au 


            Total Nuclear Potential Energy           -711.11151417 au


      Basis set specifications :
      Symmetry species         a  
      Basis functions          182

 Sorry, Molden does not know how to handle
 functions with angular momentum larger than g
Note: The following floating-point exceptions are signalling: IEEE_UNDERFLOW_FLAG IEEE_DENORMAL
--- Stop Module: seward at Thu Jan  9 20:54:14 2025 /rc=_RC_ALL_IS_WELL_ ---
*** files: molybdenum_so_cf.GssOrb xmldump
    saved to directory /home4/s4752295/Internship/Initial_simulations/Point_charge_model/1_electron/active_space_9_non_rel/Mo/varying_bond_length
--- Module seward spent 10 seconds ---

*** symbolic link created: INPORB -> molybdenum_so_cf.GssOrb
--- Start Module: scf at Thu Jan  9 20:54:14 2025 ---

()()()()()()()()()()()()()()()()()()()()()()()()()()()()()()()()()()()()()()()()()()()()()()()()()()

                                                &SCF

                                   only a single process is used
                       available to each process: 4.1 GB of memory, 1 thread?
                                            pid: 385119
()()()()()()()()()()()()()()()()()()()()()()()()()()()()()()()()()()()()()()()()()()()()()()()()()()

++    Input section:
      --------------

      Header of the integral files:
      
       Integrals generated by seward 4.2.0  , Thu Jan  9 20:54:04 2025


      Cartesian coordinates in Angstrom:
      -----------------------------------------------------
      No.  Label        X            Y            Z        
      -----------------------------------------------------
       1   MO         0.00000000   0.00000000   0.00000000
      -----------------------------------------------------
      Nuclear repulsion energy = -711.11151417
--

++    Orbital specifications:
      -----------------------

      Symmetry species               1
                                     a
      Frozen orbitals                0
      Occupied orbitals             18
      Secondary orbitals           164
      Deleted orbitals               0
      Total number of orbitals     182
      Number of basis functions    182
--

      Molecular charge                           6.000

++    Optimization specifications:
      ----------------------------

      SCF Algorithm: Conventional
      Minimized density differences are used
      Number of density matrices in core                5
      Maximum number of NDDO SCF iterations            50
      Maximum number of HF SCF iterations             100
      Threshold for SCF energy change            0.10E-08
      Threshold for density matrix               0.10E-03
      Threshold for Fock matrix                  0.15E-03
      Threshold for linear dependence            0.10E-08
      Threshold at which DIIS is turned on       0.15E+00
      Threshold at which QNR/C2DIIS is turned on 0.75E-01
      Threshold for Norm(delta) (QNR/C2DIIS)     0.20E-04
      DIIS extrapolation of the SCF procedure
      All orbitals punched on: SCFORB
--

      Detected guessorb starting orbitals                                             


++ Convergence information
                                   SCF        iterations: Energy and convergence statistics

Iter     Tot. SCF        One-elec.       Two-elec.     Energy      Max Dij or  Max Fij      DNorm      TNorm      AccCon     Time
         Energy          Energy          Energy        Change      Delta Norm                                                in Sec.

 The total and one-electron energies are shifted by a value of      4000. a.u.

   1  -357.599803399 -1052.512738515  1406.024449289   0.00E+00    0.45E+00*   0.24E+01*    0.85E+01   0.55E+03   None         1.
   2  -364.035330663  -845.657426583  1192.733610094  -0.64E+01*   0.15E+00*   0.10E+01*    0.42E+01   0.51E+03   EDIIS        1.
   3  -367.846354499  -960.219743902  1303.484903576  -0.38E+01*   0.11E+00*   0.42E+00*    0.55E+00   0.53E+03   EDIIS        1.
   4  -368.154982537  -917.006984763  1259.963516399  -0.31E+00*   0.34E-01*   0.22E+00*    0.11E+00   0.53E+03   EDIIS        1.
   5  -368.285732138  -938.809132835  1281.634914870  -0.13E+00*   0.21E-01*   0.96E-01*    0.28E-01   0.53E+03   EDIIS        1.
   6  -368.300509071  -929.468300919  1272.279306022  -0.15E-01*   0.75E-02*   0.48E-01*    0.62E-02   0.53E+03   EDIIS        1.
   7  -368.306599712  -934.149087268  1276.954001729  -0.61E-02*   0.19E-03*   0.13E-01*    0.79E-03   0.53E+03   c2DIIS       1.
   8  -368.307620432  -932.868633049  1275.672526790  -0.10E-02*   0.86E-04*   0.79E-04     0.18E-03   0.53E+03   QNRc2DIIS    1.
   9  -368.307620471  -932.862273309  1275.666167012  -0.38E-07*   0.42E-04*   0.36E-04     0.17E-04   0.53E+03   QNRc2DIIS    1.
  10  -368.307620477  -932.864566412  1275.668460108  -0.66E-08*   0.34E-05    0.44E-05     0.43E-03   0.53E+03   QNRc2DIIS    1.
  11  -368.307620478  -932.864502553  1275.668396249  -0.12E-09    0.92E-06    0.76E-06     0.35E-02   0.53E+03   QNRc2DIIS    1.

       Convergence after 11 Macro Iterations
--

 *****************************************************************************************************************************
 *                                                                                                                           *
 *                                             SCF/KS-DFT Program, Final results                                             *
 *                                                                                                                           *
 *                                                                                                                           *
 *                                                                                                                           *
 *                                                       Final Results                                                       *
 *                                                                                                                           *
 *****************************************************************************************************************************

::    Total SCF energy                              -4368.3076204775
      One-electron energy                           -4932.8645025532
      Two-electron energy                            1275.6683962488
      Nuclear repulsion energy                       -711.1115141732
      Kinetic energy (interpolated)                  4265.5845411549
      Virial theorem                                    1.0240818294
      Total spin, S(S+1)                                0.0000000000
      Total spin, S                                     0.0000000000
      Max non-diagonal density matrix element           0.0000007673
      Max non-diagonal Fock matrix element              0.0000001442


      All orbitals with orbital energies smaller than  E(LUMO)+0.5 are printed

++    Molecular orbitals:
      -------------------

      Title: SCF orbitals

      Molecular orbitals for symmetry species 1: a  

          Orbital            1         2         3         4         5         6         7         8         9        10    
          Energy         -733.2294 -100.6504  -89.3843  -89.3843  -88.8305  -16.3269  -12.5519  -12.5519  -12.1624   -6.0020
          Occ. No.          2.0000    2.0000    2.0000    2.0000    2.0000    2.0000    2.0000    2.0000    2.0000    2.0000

        1 MO     1s         1.0000    0.0002   -0.0000    0.0000   -0.0002   -0.0001   -0.0000    0.0000    0.0001   -0.0000
        2 MO     2s        -0.0002    0.9988   -0.0000    0.0000   -0.0491   -0.0020   -0.0000    0.0000   -0.0011   -0.0000
        3 MO     3s         0.0001    0.0018   -0.0000    0.0000    0.0002    0.9936   -0.0000    0.0000   -0.0752   -0.0000
        4 MO     4s        -0.0000    0.0001    0.0000   -0.0000   -0.0002    0.0584    0.0000    0.0000   -0.0146   -0.0000
        5 MO     5s         0.0000   -0.0000   -0.0000   -0.0000    0.0000   -0.0118    0.0000   -0.0000    0.0028    0.0000
        6 MO     6s        -0.0000    0.0000    0.0000   -0.0000   -0.0001    0.0137   -0.0000    0.0000   -0.0032   -0.0000
        7 MO     7s         0.0000   -0.0002   -0.0000    0.0000    0.0002   -0.0359    0.0000   -0.0000    0.0082    0.0000
        8 MO     8s        -0.0000    0.0003    0.0000    0.0000   -0.0002    0.0253   -0.0000    0.0000   -0.0055   -0.0000
        9 MO     9s         0.0000   -0.0005   -0.0000    0.0000    0.0003   -0.0209   -0.0000   -0.0000    0.0044    0.0000
       10 MO    10s        -0.0001    0.0015    0.0000   -0.0000   -0.0006    0.0138    0.0000   -0.0000   -0.0030   -0.0000
       11 MO     2px        0.0000    0.0000    0.9999   -0.0000    0.0000    0.0000    0.0000   -0.0021   -0.0000    0.0000
       12 MO     3px       -0.0000   -0.0000    0.0013   -0.0000    0.0000   -0.0000   -0.0000    0.9918   -0.0000    0.0000
       13 MO     4px        0.0000    0.0000    0.0001   -0.0000    0.0000   -0.0000   -0.0000    0.0674   -0.0000   -0.0000
       14 MO     5px       -0.0000   -0.0000   -0.0001    0.0000   -0.0000    0.0000    0.0000   -0.0197    0.0000    0.0000
       15 MO     6px        0.0000    0.0000    0.0002   -0.0000    0.0000   -0.0000   -0.0000    0.0424   -0.0000   -0.0000
       16 MO     7px       -0.0000   -0.0000   -0.0002    0.0000   -0.0000    0.0000    0.0000   -0.0307    0.0000    0.0000
       17 MO     8px        0.0000    0.0000    0.0005   -0.0000    0.0000   -0.0000   -0.0000    0.0273   -0.0000   -0.0000
       18 MO     9px       -0.0000   -0.0000   -0.0007    0.0000   -0.0000    0.0000    0.0000   -0.0184    0.0000    0.0000
       19 MO    10px        0.0000   -0.0000    0.0017   -0.0000    0.0000   -0.0000   -0.0000    0.0083   -0.0000   -0.0000
       20 MO     2py        0.0000    0.0000    0.0000    0.9999   -0.0000    0.0000   -0.0021   -0.0000   -0.0000    0.0000
       21 MO     3py        0.0000   -0.0000    0.0000    0.0013    0.0000    0.0000    0.9918    0.0000    0.0000    0.0021
       22 MO     4py        0.0000    0.0000    0.0000    0.0001   -0.0000   -0.0000    0.0674    0.0000   -0.0000   -0.0010
       23 MO     5py        0.0000    0.0000   -0.0000   -0.0001    0.0000    0.0000   -0.0197   -0.0000    0.0000    0.0003
       24 MO     6py       -0.0000    0.0000    0.0000    0.0002   -0.0000   -0.0000    0.0424    0.0000    0.0000   -0.0006
       25 MO     7py        0.0000   -0.0000   -0.0000   -0.0002    0.0000    0.0000   -0.0307   -0.0000   -0.0000    0.0005
       26 MO     8py       -0.0000    0.0000    0.0000    0.0005   -0.0000   -0.0000    0.0273    0.0000    0.0000   -0.0005
       27 MO     9py        0.0000   -0.0000   -0.0000   -0.0007    0.0000    0.0000   -0.0184   -0.0000    0.0000    0.0005
       28 MO    10py       -0.0000    0.0000    0.0000    0.0017   -0.0000   -0.0000    0.0083    0.0000    0.0000   -0.0004
       29 MO     2pz        0.0002    0.0490   -0.0000    0.0000    0.9988   -0.0003   -0.0000   -0.0000    0.0000    0.0000
       30 MO     3pz       -0.0001    0.0012    0.0000   -0.0000   -0.0005    0.0762   -0.0000    0.0000    0.9901    0.0000
       31 MO     4pz        0.0000   -0.0004   -0.0000    0.0000    0.0008   -0.0007   -0.0000    0.0000    0.0798    0.0000
       32 MO     5pz       -0.0000    0.0002    0.0000   -0.0000   -0.0003    0.0002    0.0000   -0.0000   -0.0232    0.0000
       33 MO     6pz        0.0000   -0.0004   -0.0000    0.0000    0.0008   -0.0005   -0.0000    0.0000    0.0501   -0.0000
       34 MO     7pz       -0.0000    0.0004    0.0000   -0.0000   -0.0009    0.0004    0.0000   -0.0000   -0.0362   -0.0000
       35 MO     8pz        0.0000   -0.0006   -0.0000    0.0000    0.0014   -0.0004   -0.0000    0.0000    0.0322   -0.0000
       36 MO     9pz       -0.0000    0.0007    0.0000   -0.0000   -0.0018    0.0002    0.0000   -0.0000   -0.0219   -0.0000
       37 MO    10pz        0.0001   -0.0011   -0.0000    0.0000    0.0033    0.0003   -0.0000    0.0000    0.0100    0.0000
       38 MO     3d2-       0.0000    0.0000    0.0000    0.0043   -0.0000   -0.0000    0.0440    0.0000    0.0000    0.8379
       39 MO     4d2-       0.0000   -0.0000   -0.0000   -0.0009    0.0000   -0.0000   -0.0025   -0.0000   -0.0000    0.0847
       40 MO     5d2-      -0.0000    0.0000    0.0000    0.0011    0.0000    0.0000    0.0026    0.0000   -0.0000   -0.0765
       41 MO     6d2-       0.0000   -0.0000   -0.0000   -0.0010   -0.0000   -0.0000   -0.0023   -0.0000    0.0000    0.0531
       42 MO     7d2-      -0.0000    0.0000    0.0000    0.0011   -0.0000    0.0000    0.0019    0.0000    0.0000   -0.0378
       43 MO     8d2-       0.0000   -0.0000   -0.0000   -0.0015    0.0000   -0.0000   -0.0018   -0.0000    0.0000    0.0332
       44 MO     9d2-      -0.0000    0.0000    0.0000    0.0016    0.0000    0.0000    0.0012    0.0000   -0.0000   -0.0229
       45 MO    10d2-       0.0000   -0.0000   -0.0000   -0.0023    0.0000   -0.0000   -0.0010   -0.0000    0.0000    0.0217
       46 MO    11d2-      -0.0000    0.0000    0.0000    0.0018   -0.0000    0.0000   -0.0012   -0.0000   -0.0000   -0.0033
       47 MO     3d1-       0.0000   -0.0000    0.0000    0.0069   -0.0000    0.0000    0.0741    0.0000    0.0000   -0.5208
       48 MO     4d1-       0.0000   -0.0000   -0.0000   -0.0015    0.0000   -0.0000   -0.0033   -0.0000   -0.0000   -0.0518
       49 MO     5d1-      -0.0000    0.0000    0.0000    0.0017   -0.0000    0.0000    0.0035    0.0000    0.0000    0.0467
       50 MO     6d1-       0.0000   -0.0000   -0.0000   -0.0016    0.0000   -0.0000   -0.0029   -0.0000    0.0000   -0.0323
       51 MO     7d1-      -0.0000    0.0000    0.0000    0.0017   -0.0000    0.0000    0.0023    0.0000    0.0000    0.0229
       52 MO     8d1-       0.0000   -0.0000   -0.0000   -0.0024    0.0000   -0.0000   -0.0020   -0.0000   -0.0000   -0.0200
       53 MO     9d1-      -0.0000    0.0000    0.0000    0.0026   -0.0000    0.0000    0.0010    0.0000    0.0000    0.0137
       54 MO    10d1-      -0.0000    0.0000   -0.0000   -0.0038    0.0000   -0.0000   -0.0005   -0.0000   -0.0000   -0.0127
       55 MO    11d1-       0.0000   -0.0000    0.0000    0.0032   -0.0000    0.0000   -0.0025   -0.0000   -0.0000    0.0018
       56 MO     3d0       -0.0000   -0.0034    0.0000   -0.0000   -0.0035   -0.0226    0.0000    0.0000   -0.0351    0.0000
       57 MO     4d0        0.0000    0.0007   -0.0000    0.0000    0.0008    0.0017    0.0000   -0.0000    0.0029   -0.0000
       58 MO     5d0       -0.0000   -0.0009    0.0000   -0.0000   -0.0009   -0.0017   -0.0000    0.0000   -0.0033   -0.0000
       59 MO     6d0        0.0000    0.0008   -0.0000    0.0000    0.0008    0.0015    0.0000   -0.0000    0.0029    0.0000
       60 MO     7d0       -0.0000   -0.0009    0.0000   -0.0000   -0.0009   -0.0012   -0.0000   -0.0000   -0.0026   -0.0000
       61 MO     8d0        0.0000    0.0012   -0.0000    0.0000    0.0012    0.0010   -0.0000    0.0000    0.0028    0.0000
       62 MO     9d0       -0.0000   -0.0013    0.0000   -0.0000   -0.0012   -0.0005    0.0000   -0.0000   -0.0022    0.0000
       63 MO    10d0        0.0000    0.0019   -0.0000    0.0000    0.0018    0.0002   -0.0000    0.0000    0.0025    0.0000
       64 MO    11d0       -0.0000   -0.0015    0.0000   -0.0000   -0.0010    0.0014    0.0000   -0.0000    0.0004    0.0000
       65 MO     3d1+      -0.0000   -0.0000    0.0069   -0.0000    0.0000    0.0000   -0.0000    0.0741   -0.0000   -0.0000
       66 MO     4d1+       0.0000    0.0000   -0.0015    0.0000   -0.0000   -0.0000    0.0000   -0.0033    0.0000   -0.0000
       67 MO     5d1+      -0.0000   -0.0000    0.0017   -0.0000    0.0000    0.0000   -0.0000    0.0035    0.0000    0.0000
       68 MO     6d1+       0.0000    0.0000   -0.0016    0.0000   -0.0000   -0.0000    0.0000   -0.0029   -0.0000   -0.0000
       69 MO     7d1+      -0.0000   -0.0000    0.0017   -0.0000    0.0000    0.0000   -0.0000    0.0023    0.0000    0.0000
       70 MO     8d1+       0.0000    0.0000   -0.0024    0.0000   -0.0000   -0.0000    0.0000   -0.0020   -0.0000   -0.0000
       71 MO     9d1+      -0.0000   -0.0000    0.0026   -0.0000    0.0000    0.0000   -0.0000    0.0010    0.0000    0.0000
       72 MO    10d1+       0.0000    0.0000   -0.0038    0.0000   -0.0000    0.0000    0.0000   -0.0005   -0.0000   -0.0000
       73 MO    11d1+      -0.0000   -0.0000    0.0032   -0.0000    0.0000   -0.0000    0.0000   -0.0025    0.0000    0.0000
       74 MO     3d2+       0.0000    0.0000   -0.0043    0.0000   -0.0000   -0.0000    0.0000   -0.0440    0.0000   -0.0000
       75 MO     4d2+      -0.0000   -0.0000    0.0009   -0.0000    0.0000    0.0000   -0.0000    0.0025   -0.0000   -0.0000
       76 MO     5d2+       0.0000    0.0000   -0.0011    0.0000   -0.0000   -0.0000    0.0000   -0.0026    0.0000    0.0000
       77 MO     6d2+      -0.0000   -0.0000    0.0010   -0.0000    0.0000    0.0000   -0.0000    0.0023   -0.0000   -0.0000
       78 MO     7d2+       0.0000    0.0000   -0.0011    0.0000   -0.0000   -0.0000    0.0000   -0.0019    0.0000    0.0000
       79 MO     8d2+      -0.0000   -0.0000    0.0015   -0.0000    0.0000    0.0000   -0.0000    0.0018   -0.0000   -0.0000
       80 MO     9d2+       0.0000    0.0000   -0.0016    0.0000   -0.0000   -0.0000    0.0000   -0.0012    0.0000    0.0000
       81 MO    10d2+      -0.0000   -0.0000    0.0023   -0.0000    0.0000   -0.0000   -0.0000    0.0010    0.0000   -0.0000
       82 MO    11d2+       0.0000    0.0000   -0.0018    0.0000   -0.0000    0.0000   -0.0000    0.0012   -0.0000    0.0000
       83 MO     4f3-      -0.0000    0.0000   -0.0000   -0.0000    0.0000    0.0000   -0.0000   -0.0000   -0.0000   -0.0000
       84 MO     5f3-      -0.0000    0.0000   -0.0000   -0.0000    0.0000    0.0000   -0.0000   -0.0000    0.0000   -0.0000
       85 MO     6f3-       0.0000   -0.0000    0.0000    0.0000   -0.0000   -0.0000    0.0000    0.0000    0.0000    0.0000
       86 MO     7f3-       0.0000    0.0000   -0.0000   -0.0000    0.0000    0.0000   -0.0000   -0.0000   -0.0000   -0.0000
       87 MO     8f3-       0.0000   -0.0000   -0.0000   -0.0000   -0.0000    0.0000   -0.0000   -0.0000    0.0000   -0.0000
       88 MO     9f3-      -0.0000    0.0000    0.0000    0.0000   -0.0000   -0.0000    0.0000    0.0000    0.0000    0.0000
       89 MO     4f2-       0.0000   -0.0000   -0.0000   -0.0000   -0.0000   -0.0000   -0.0003   -0.0000   -0.0000    0.0029
       90 MO     5f2-       0.0000   -0.0000   -0.0000   -0.0000   -0.0000   -0.0000   -0.0003   -0.0000   -0.0000    0.0029
       91 MO     6f2-      -0.0000    0.0000   -0.0000   -0.0000    0.0000    0.0000    0.0003    0.0000    0.0000   -0.0023
       92 MO     7f2-       0.0000   -0.0000   -0.0000   -0.0000    0.0000   -0.0000   -0.0004   -0.0000   -0.0000    0.0020
       93 MO     8f2-       0.0000   -0.0000   -0.0000   -0.0001    0.0000   -0.0000   -0.0005   -0.0000   -0.0000    0.0016
       94 MO     9f2-      -0.0000    0.0000    0.0000    0.0007   -0.0000    0.0000    0.0032    0.0000    0.0000   -0.0093
       95 MO     4f1-      -0.0000    0.0000   -0.0000   -0.0000    0.0000    0.0000   -0.0006   -0.0000   -0.0000   -0.0015
       96 MO     5f1-       0.0000    0.0000   -0.0000   -0.0000   -0.0000    0.0000   -0.0007   -0.0000    0.0000   -0.0015
       97 MO     6f1-      -0.0000   -0.0000   -0.0000   -0.0000   -0.0000   -0.0000    0.0006    0.0000    0.0000    0.0013
       98 MO     7f1-       0.0000    0.0000   -0.0000   -0.0000    0.0000    0.0000   -0.0006   -0.0000   -0.0000   -0.0011
       99 MO     8f1-      -0.0000   -0.0000   -0.0000   -0.0000   -0.0000    0.0000   -0.0005   -0.0000   -0.0000   -0.0008
      100 MO     9f1-       0.0000    0.0000    0.0000    0.0004    0.0000    0.0000    0.0032    0.0000    0.0000    0.0043
      101 MO     4f0        0.0000   -0.0001    0.0000   -0.0000   -0.0000   -0.0013    0.0000   -0.0000   -0.0008    0.0000
      102 MO     5f0        0.0000   -0.0000    0.0000   -0.0000   -0.0000   -0.0014    0.0000   -0.0000   -0.0009    0.0000
      103 MO     6f0       -0.0000   -0.0000    0.0000   -0.0000   -0.0000    0.0012   -0.0000    0.0000    0.0008   -0.0000
      104 MO     7f0        0.0000   -0.0001    0.0000   -0.0000   -0.0000   -0.0014    0.0000   -0.0000   -0.0008    0.0000
      105 MO     8f0       -0.0000   -0.0002    0.0000   -0.0000   -0.0001   -0.0015    0.0000   -0.0000   -0.0007    0.0000
      106 MO     9f0        0.0000    0.0016   -0.0000    0.0000    0.0005    0.0096   -0.0000    0.0000    0.0040   -0.0000
      107 MO     4f1+      -0.0000    0.0000   -0.0000    0.0000   -0.0000    0.0000    0.0000   -0.0006    0.0000   -0.0000
      108 MO     5f1+      -0.0000    0.0000   -0.0000    0.0000   -0.0000    0.0000    0.0000   -0.0007    0.0000   -0.0000
      109 MO     6f1+       0.0000    0.0000   -0.0000    0.0000   -0.0000   -0.0000   -0.0000    0.0006   -0.0000    0.0000
      110 MO     7f1+      -0.0000    0.0000   -0.0000    0.0000   -0.0000    0.0000    0.0000   -0.0006    0.0000   -0.0000
      111 MO     8f1+       0.0000    0.0000   -0.0000    0.0000   -0.0000    0.0000    0.0000   -0.0005    0.0000   -0.0000
      112 MO     9f1+      -0.0000   -0.0000    0.0004   -0.0000    0.0000   -0.0000   -0.0000    0.0032   -0.0000    0.0000
      113 MO     4f2+      -0.0000    0.0000    0.0000   -0.0000    0.0000    0.0000   -0.0000    0.0003   -0.0000   -0.0000
      114 MO     5f2+       0.0000    0.0000    0.0000   -0.0000    0.0000    0.0000   -0.0000    0.0003   -0.0000   -0.0000
      115 MO     6f2+      -0.0000   -0.0000    0.0000   -0.0000    0.0000   -0.0000    0.0000   -0.0003    0.0000    0.0000
      116 MO     7f2+      -0.0000    0.0000    0.0000   -0.0000    0.0000    0.0000   -0.0000    0.0004   -0.0000   -0.0000
      117 MO     8f2+      -0.0000    0.0000    0.0001   -0.0000    0.0000    0.0000   -0.0000    0.0005   -0.0000   -0.0000
      118 MO     9f2+       0.0000   -0.0000   -0.0007    0.0000   -0.0000   -0.0000    0.0000   -0.0032    0.0000    0.0000
      119 MO     4f3+       0.0000   -0.0001   -0.0000    0.0000    0.0000   -0.0009    0.0000   -0.0000    0.0004    0.0000
      120 MO     5f3+       0.0000   -0.0000   -0.0000    0.0000    0.0000   -0.0009    0.0000   -0.0000    0.0005    0.0000
      121 MO     6f3+      -0.0000   -0.0000    0.0000   -0.0000    0.0000    0.0007   -0.0000    0.0000   -0.0004   -0.0000
      122 MO     7f3+       0.0000   -0.0000   -0.0000    0.0000    0.0000   -0.0009    0.0000   -0.0000    0.0005    0.0000
      123 MO     8f3+      -0.0000   -0.0001   -0.0000    0.0000    0.0001   -0.0009    0.0000   -0.0000    0.0006    0.0000
      124 MO     9f3+       0.0000    0.0010    0.0000   -0.0000   -0.0006    0.0061   -0.0000    0.0000   -0.0038   -0.0000
      125 MO     5g4-      -0.0000    0.0000   -0.0000   -0.0000    0.0000    0.0000   -0.0003   -0.0000   -0.0000   -0.0000
      126 MO     6g4-       0.0000   -0.0000    0.0000    0.0000   -0.0000   -0.0000    0.0004    0.0000    0.0000    0.0001
      127 MO     7g4-      -0.0000    0.0000   -0.0000   -0.0000    0.0000   -0.0000   -0.0007   -0.0000   -0.0000   -0.0001
      128 MO     8g4-       0.0000   -0.0000    0.0000    0.0001   -0.0000    0.0000    0.0010    0.0000    0.0000    0.0002
      129 MO     5g3-       0.0000    0.0000    0.0000    0.0000    0.0000    0.0000    0.0000    0.0000    0.0000    0.0000
      130 MO     6g3-      -0.0000   -0.0000   -0.0000   -0.0000   -0.0000   -0.0000   -0.0000   -0.0000   -0.0000   -0.0000
      131 MO     7g3-       0.0000    0.0000    0.0000    0.0000    0.0000    0.0000    0.0000    0.0000    0.0000    0.0000
      132 MO     8g3-      -0.0000   -0.0000   -0.0000   -0.0000    0.0000   -0.0000   -0.0000   -0.0000   -0.0000   -0.0000
      133 MO     5g2-      -0.0000   -0.0000    0.0000    0.0000    0.0000   -0.0000   -0.0000   -0.0000   -0.0000   -0.0002
      134 MO     6g2-       0.0000    0.0000   -0.0000   -0.0000    0.0000    0.0000    0.0000    0.0000    0.0000    0.0003
      135 MO     7g2-      -0.0000   -0.0000    0.0000    0.0000   -0.0000   -0.0000   -0.0000   -0.0000   -0.0000   -0.0003
      136 MO     8g2-       0.0000    0.0000   -0.0000   -0.0000    0.0000    0.0000    0.0000    0.0000    0.0000    0.0004
      137 MO     5g1-       0.0000   -0.0000   -0.0000   -0.0000    0.0000   -0.0000   -0.0004   -0.0000    0.0000    0.0003
      138 MO     6g1-      -0.0000    0.0000    0.0000    0.0000   -0.0000    0.0000    0.0005    0.0000   -0.0000   -0.0004
      139 MO     7g1-       0.0000   -0.0000   -0.0000   -0.0001    0.0000   -0.0000   -0.0009   -0.0000    0.0000    0.0006
      140 MO     8g1-      -0.0000    0.0000    0.0000    0.0001   -0.0000    0.0000    0.0013    0.0000   -0.0000   -0.0009
      141 MO     5g0       -0.0000   -0.0000    0.0000    0.0000   -0.0000   -0.0000   -0.0000   -0.0000   -0.0005   -0.0000
      142 MO     6g0        0.0000    0.0000   -0.0000    0.0000    0.0000    0.0001   -0.0000    0.0000    0.0008    0.0000
      143 MO     7g0       -0.0000   -0.0000    0.0000   -0.0000   -0.0001   -0.0001   -0.0000   -0.0000   -0.0013    0.0000
      144 MO     8g0        0.0000    0.0000   -0.0000    0.0000    0.0001    0.0002   -0.0000    0.0000    0.0019    0.0000
      145 MO     5g1+       0.0000   -0.0000   -0.0000    0.0000   -0.0000   -0.0000    0.0000   -0.0004    0.0000    0.0000
      146 MO     6g1+      -0.0000    0.0000    0.0000   -0.0000    0.0000    0.0000   -0.0000    0.0005   -0.0000   -0.0000
      147 MO     7g1+       0.0000   -0.0000   -0.0001    0.0000   -0.0000   -0.0000    0.0000   -0.0009    0.0000    0.0000
      148 MO     8g1+      -0.0000    0.0000    0.0001   -0.0000    0.0000    0.0000   -0.0000    0.0013   -0.0000   -0.0000
      149 MO     5g2+       0.0000    0.0000   -0.0000    0.0000   -0.0000    0.0000   -0.0000    0.0000    0.0000    0.0000
      150 MO     6g2+      -0.0000   -0.0000    0.0000   -0.0000    0.0000   -0.0000    0.0000   -0.0000   -0.0000   -0.0000
      151 MO     7g2+       0.0000    0.0000   -0.0000    0.0000   -0.0000    0.0000   -0.0000    0.0000    0.0000    0.0000
      152 MO     8g2+      -0.0000   -0.0000    0.0000   -0.0000    0.0000   -0.0000    0.0000   -0.0000   -0.0000   -0.0000
      153 MO     5g3+       0.0000    0.0000    0.0000   -0.0000   -0.0000    0.0001   -0.0000    0.0000   -0.0003    0.0000
      154 MO     6g3+      -0.0000   -0.0000   -0.0000    0.0000    0.0000   -0.0003    0.0000   -0.0000    0.0004    0.0000
      155 MO     7g3+       0.0000    0.0001    0.0000   -0.0000   -0.0001    0.0005   -0.0000    0.0000   -0.0008   -0.0000
      156 MO     8g3+      -0.0000   -0.0001   -0.0000    0.0000    0.0001   -0.0007    0.0000   -0.0000    0.0011    0.0000
      157 MO     5g4+       0.0000   -0.0000   -0.0000    0.0000   -0.0000   -0.0000    0.0000   -0.0003    0.0000   -0.0000
      158 MO     6g4+      -0.0000    0.0000    0.0000   -0.0000    0.0000    0.0000   -0.0000    0.0004   -0.0000    0.0000
      159 MO     7g4+       0.0000   -0.0000   -0.0000    0.0000   -0.0000   -0.0000    0.0000   -0.0007    0.0000   -0.0000
      160 MO     8g4+      -0.0000    0.0000    0.0001   -0.0000    0.0000    0.0000   -0.0000    0.0010   -0.0000    0.0000
      161 MO     6h5-      -0.0000   -0.0000    0.0000    0.0000   -0.0000   -0.0000    0.0000    0.0000   -0.0000   -0.0001
      162 MO     7h5-       0.0000    0.0000   -0.0000   -0.0000    0.0000    0.0000   -0.0000   -0.0000   -0.0000    0.0001
      163 MO     6h4-       0.0000    0.0000    0.0000    0.0000    0.0000    0.0000    0.0000    0.0000    0.0000    0.0001
      164 MO     7h4-       0.0000   -0.0000   -0.0000   -0.0000   -0.0000   -0.0000   -0.0001   -0.0000   -0.0000   -0.0001
      165 MO     6h3-      -0.0000   -0.0000   -0.0000    0.0000   -0.0000   -0.0000   -0.0000    0.0000    0.0000   -0.0000
      166 MO     7h3-       0.0000    0.0000    0.0000   -0.0000    0.0000    0.0000    0.0000   -0.0000    0.0000    0.0000
      167 MO     6h2-      -0.0000    0.0000    0.0000    0.0000   -0.0000    0.0000    0.0000    0.0000   -0.0000   -0.0001
      168 MO     7h2-       0.0000   -0.0000   -0.0000   -0.0000   -0.0000   -0.0000   -0.0000   -0.0000    0.0000    0.0001
      169 MO     6h1-      -0.0000   -0.0000    0.0000    0.0000   -0.0000   -0.0000   -0.0000   -0.0000   -0.0000    0.0001
      170 MO     7h1-       0.0000    0.0000   -0.0000   -0.0000    0.0000    0.0000    0.0000    0.0000   -0.0000   -0.0001
      171 MO     6h0       -0.0000   -0.0000    0.0000   -0.0000   -0.0000   -0.0000   -0.0000    0.0000   -0.0000    0.0000
      172 MO     7h0        0.0000    0.0000   -0.0000    0.0000    0.0000    0.0000    0.0000   -0.0000    0.0000   -0.0000
      173 MO     6h1+      -0.0000    0.0000    0.0000   -0.0000   -0.0000    0.0000    0.0000   -0.0000   -0.0000    0.0000
      174 MO     7h1+       0.0000   -0.0000   -0.0000    0.0000    0.0000   -0.0000   -0.0000    0.0000    0.0000   -0.0000
      175 MO     6h2+      -0.0000   -0.0000   -0.0000    0.0000    0.0000   -0.0000    0.0000   -0.0000    0.0000    0.0000
      176 MO     7h2+       0.0000    0.0000    0.0000   -0.0000   -0.0000    0.0000   -0.0000    0.0000   -0.0000   -0.0000
      177 MO     6h3+      -0.0000   -0.0000   -0.0000    0.0000    0.0000   -0.0000    0.0000    0.0000    0.0000   -0.0000
      178 MO     7h3+       0.0000    0.0000    0.0000   -0.0000   -0.0000    0.0000   -0.0000   -0.0000   -0.0001   -0.0000
      179 MO     6h4+      -0.0000    0.0000    0.0000   -0.0000    0.0000    0.0000   -0.0000    0.0000   -0.0000    0.0000
      180 MO     7h4+       0.0000   -0.0000   -0.0000    0.0000   -0.0000   -0.0000    0.0000   -0.0001    0.0000   -0.0000
      181 MO     6h5+       0.0000   -0.0000   -0.0000    0.0000   -0.0000   -0.0000    0.0000   -0.0000    0.0000    0.0000
      182 MO     7h5+      -0.0000    0.0000    0.0000   -0.0000    0.0000    0.0000   -0.0000    0.0000   -0.0000   -0.0000

          Orbital           11        12        13        14        15        16        17        18        19        20    
          Energy           -6.0020   -5.4225   -5.3672   -5.3672   -2.6190   -1.6512   -1.6512   -1.6096   -0.3991   -0.2925
          Occ. No.          2.0000    2.0000    2.0000    2.0000    2.0000    2.0000    2.0000    2.0000    0.0000    0.0000

        1 MO     1s         0.0000    0.0000    0.0000    0.0000    0.0000   -0.0000   -0.0000   -0.0000   -0.0000    0.0000
        2 MO     2s         0.0000    0.0026    0.0000    0.0000    0.0001   -0.0000   -0.0000    0.0003   -0.0000    0.0000
        3 MO     3s         0.0000    0.0172    0.0000    0.0000   -0.0491   -0.0000   -0.0000    0.0061    0.0127    0.0000
        4 MO     4s         0.0000    0.0252    0.0000    0.0000    0.9750    0.0000    0.0000   -0.0386   -0.0879   -0.0000
        5 MO     5s        -0.0000   -0.0028   -0.0000   -0.0000    0.1077    0.0000    0.0000   -0.0195    0.9846    0.0000
        6 MO     6s         0.0000    0.0031    0.0000    0.0000   -0.0982   -0.0000   -0.0000    0.0153   -0.0032    0.0000
        7 MO     7s        -0.0000   -0.0071   -0.0000   -0.0000    0.1486    0.0000    0.0000   -0.0179   -0.1386   -0.0000
        8 MO     8s         0.0000    0.0041    0.0000    0.0000   -0.0226    0.0000    0.0000    0.0001   -0.0377   -0.0000
        9 MO     9s        -0.0000   -0.0031   -0.0000   -0.0000    0.0087    0.0000    0.0000   -0.0012   -0.0130   -0.0000
       10 MO    10s         0.0000    0.0026    0.0000    0.0000   -0.0071    0.0000    0.0000    0.0010    0.0018   -0.0000
       11 MO     2px       -0.0000    0.0000    0.0000   -0.0066   -0.0000   -0.0000   -0.0001    0.0000    0.0000   -0.0004
       12 MO     3px       -0.0021    0.0000    0.0000   -0.0761   -0.0000   -0.0000   -0.0556    0.0000    0.0000    0.0089
       13 MO     4px        0.0010    0.0000    0.0000   -0.0579   -0.0000    0.0000    0.9654   -0.0000   -0.0000   -0.0674
       14 MO     5px       -0.0003   -0.0000   -0.0000    0.0130    0.0000    0.0000    0.1566   -0.0000   -0.0000    0.8427
       15 MO     6px        0.0006    0.0000    0.0000   -0.0251   -0.0000   -0.0000   -0.1844    0.0000    0.0000    0.3134
       16 MO     7px       -0.0005   -0.0000   -0.0000    0.0158    0.0000    0.0000    0.0357   -0.0000    0.0000    0.1206
       17 MO     8px        0.0005    0.0000    0.0000   -0.0130    0.0000   -0.0000   -0.0056    0.0000    0.0000    0.0146
       18 MO     9px       -0.0005   -0.0000   -0.0000    0.0090    0.0000    0.0000    0.0155   -0.0000    0.0000   -0.0077
       19 MO    10px        0.0004    0.0000    0.0000   -0.0057    0.0000   -0.0000   -0.0020   -0.0000   -0.0000   -0.0012
       20 MO     2py        0.0000    0.0000   -0.0066   -0.0000    0.0000   -0.0001    0.0000    0.0000    0.0000    0.0000
       21 MO     3py        0.0000    0.0000   -0.0761   -0.0000   -0.0000   -0.0556    0.0000    0.0000   -0.0000   -0.0000
       22 MO     4py       -0.0000    0.0000   -0.0579   -0.0000   -0.0000    0.9654   -0.0000   -0.0000    0.0000    0.0000
       23 MO     5py        0.0000   -0.0000    0.0130    0.0000    0.0000    0.1566   -0.0000   -0.0000   -0.0000   -0.0000
       24 MO     6py       -0.0000    0.0000   -0.0251   -0.0000   -0.0000   -0.1844    0.0000    0.0000   -0.0000   -0.0000
       25 MO     7py        0.0000   -0.0000    0.0158    0.0000    0.0000    0.0357   -0.0000   -0.0000   -0.0000   -0.0000
       26 MO     8py       -0.0000    0.0000   -0.0130   -0.0000   -0.0000   -0.0056    0.0000    0.0000   -0.0000   -0.0000
       27 MO     9py        0.0000   -0.0000    0.0090    0.0000    0.0000    0.0155   -0.0000   -0.0000    0.0000    0.0000
       28 MO    10py       -0.0000   -0.0000   -0.0057   -0.0000   -0.0000   -0.0020    0.0000   -0.0000   -0.0000    0.0000
       29 MO     2pz       -0.0000    0.0030    0.0000    0.0000    0.0000    0.0000   -0.0000   -0.0005   -0.0000   -0.0000
       30 MO     3pz        0.0000    0.0308    0.0000    0.0000    0.0040   -0.0000   -0.0000   -0.0617   -0.0019   -0.0000
       31 MO     4pz       -0.0000    0.0311    0.0000    0.0000    0.0465    0.0000    0.0000    0.9602    0.0079    0.0000
       32 MO     5pz        0.0000   -0.0072   -0.0000   -0.0000   -0.0022    0.0000    0.0000    0.1719    0.0320   -0.0000
       33 MO     6pz       -0.0000    0.0139    0.0000    0.0000    0.0028   -0.0000   -0.0000   -0.1985   -0.0035   -0.0000
       34 MO     7pz        0.0000   -0.0090   -0.0000   -0.0000   -0.0009    0.0000    0.0000    0.0367   -0.0012   -0.0000
       35 MO     8pz       -0.0000    0.0078    0.0000    0.0000    0.0006   -0.0000   -0.0000   -0.0062   -0.0014   -0.0000
       36 MO     9pz        0.0000   -0.0056    0.0000   -0.0000   -0.0006    0.0000    0.0000    0.0175    0.0001    0.0000
       37 MO    10pz       -0.0000    0.0039    0.0000    0.0000   -0.0000   -0.0000   -0.0000   -0.0024   -0.0001   -0.0000
       38 MO     3d2-       0.0000   -0.0000    0.5115    0.0000   -0.0000    0.0184   -0.0000   -0.0000    0.0000   -0.0000
       39 MO     4d2-       0.0000   -0.0000    0.0727    0.0000   -0.0000    0.0280   -0.0000   -0.0000    0.0000    0.0000
       40 MO     5d2-      -0.0000    0.0000   -0.0644   -0.0000    0.0000   -0.0131    0.0000    0.0000    0.0000    0.0000
       41 MO     6d2-       0.0000   -0.0000    0.0438    0.0000    0.0000    0.0042   -0.0000   -0.0000    0.0000    0.0000
       42 MO     7d2-      -0.0000    0.0000   -0.0310   -0.0000    0.0000   -0.0026    0.0000    0.0000    0.0000    0.0000
       43 MO     8d2-       0.0000   -0.0000    0.0274    0.0000   -0.0000    0.0025   -0.0000    0.0000   -0.0000   -0.0000
       44 MO     9d2-      -0.0000    0.0000   -0.0190   -0.0000    0.0000   -0.0016    0.0000    0.0000    0.0000   -0.0000
       45 MO    10d2-       0.0000   -0.0000    0.0188    0.0000    0.0000    0.0017   -0.0000    0.0000    0.0000   -0.0000
       46 MO    11d2-      -0.0000    0.0000   -0.0025   -0.0000   -0.0000    0.0003   -0.0000    0.0000    0.0000    0.0000
       47 MO     3d1-      -0.0000   -0.0000    0.8242    0.0000   -0.0000    0.0279   -0.0000   -0.0000   -0.0000   -0.0000
       48 MO     4d1-      -0.0000   -0.0000    0.1152    0.0000   -0.0000    0.0457   -0.0000   -0.0000    0.0000    0.0000
       49 MO     5d1-       0.0000    0.0000   -0.1018   -0.0000    0.0000   -0.0221    0.0000    0.0000    0.0000    0.0000
       50 MO     6d1-      -0.0000   -0.0000    0.0692    0.0000   -0.0000    0.0073   -0.0000   -0.0000    0.0000    0.0000
       51 MO     7d1-       0.0000    0.0000   -0.0488   -0.0000    0.0000   -0.0040    0.0000    0.0000    0.0000    0.0000
       52 MO     8d1-      -0.0000   -0.0000    0.0428    0.0000   -0.0000    0.0037   -0.0000   -0.0000   -0.0000   -0.0000
       53 MO     9d1-       0.0000    0.0000   -0.0296   -0.0000    0.0000   -0.0023    0.0000    0.0000   -0.0000   -0.0000
       54 MO    10d1-      -0.0000   -0.0000    0.0289    0.0000   -0.0000    0.0022   -0.0000   -0.0000   -0.0000   -0.0000
       55 MO    11d1-       0.0000    0.0000   -0.0037   -0.0000    0.0000    0.0007   -0.0000   -0.0000   -0.0000    0.0000
       56 MO     3d0        0.0000    0.9752    0.0000    0.0000   -0.0202    0.0000    0.0000   -0.0182    0.0010    0.0000
       57 MO     4d0        0.0000    0.1324    0.0000    0.0000   -0.0150   -0.0000    0.0000   -0.0241    0.0265   -0.0000
       58 MO     5d0       -0.0000   -0.1173   -0.0000   -0.0000    0.0102   -0.0000   -0.0000    0.0100    0.0044   -0.0000
       59 MO     6d0        0.0000    0.0799    0.0000    0.0000   -0.0049   -0.0000    0.0000   -0.0030    0.0007   -0.0000
       60 MO     7d0       -0.0000   -0.0564   -0.0000   -0.0000    0.0027    0.0000   -0.0000    0.0023   -0.0003   -0.0000
       61 MO     8d0        0.0000    0.0494    0.0000    0.0000   -0.0021    0.0000    0.0000   -0.0026   -0.0001    0.0000
       62 MO     9d0       -0.0000   -0.0342   -0.0000   -0.0000    0.0014   -0.0000   -0.0000    0.0018    0.0000    0.0000
       63 MO    10d0        0.0000    0.0332    0.0000    0.0000   -0.0013   -0.0000    0.0000   -0.0020    0.0000    0.0000
       64 MO    11d0       -0.0000   -0.0043   -0.0000   -0.0000   -0.0005   -0.0000    0.0000    0.0000    0.0002   -0.0000
       65 MO     3d1+       0.5208   -0.0000   -0.0000    0.8242    0.0000    0.0000    0.0279   -0.0000   -0.0000    0.0154
       66 MO     4d1+       0.0518   -0.0000   -0.0000    0.1152    0.0000    0.0000    0.0457   -0.0000   -0.0000   -0.2952
       67 MO     5d1+      -0.0467    0.0000    0.0000   -0.1018   -0.0000   -0.0000   -0.0221    0.0000   -0.0000   -0.1851
       68 MO     6d1+       0.0323   -0.0000   -0.0000    0.0692    0.0000    0.0000    0.0073   -0.0000   -0.0000   -0.0713
       69 MO     7d1+      -0.0229    0.0000    0.0000   -0.0488   -0.0000   -0.0000   -0.0040    0.0000    0.0000   -0.0263
       70 MO     8d1+       0.0200   -0.0000   -0.0000    0.0428    0.0000    0.0000    0.0037   -0.0000    0.0000    0.0102
       71 MO     9d1+      -0.0137    0.0000    0.0000   -0.0296   -0.0000   -0.0000   -0.0023    0.0000    0.0000    0.0074
       72 MO    10d1+       0.0127   -0.0000   -0.0000    0.0289    0.0000    0.0000    0.0022    0.0000    0.0000    0.0036
       73 MO    11d1+      -0.0018    0.0000    0.0000   -0.0037    0.0000    0.0000    0.0007   -0.0000   -0.0000   -0.0001
       74 MO     3d2+       0.8379    0.0000    0.0000   -0.5115   -0.0000   -0.0000   -0.0184    0.0000    0.0000   -0.0090
       75 MO     4d2+       0.0847    0.0000    0.0000   -0.0727   -0.0000   -0.0000   -0.0280    0.0000    0.0000    0.1742
       76 MO     5d2+      -0.0765   -0.0000   -0.0000    0.0644    0.0000    0.0000    0.0131   -0.0000    0.0000    0.1101
       77 MO     6d2+       0.0531    0.0000    0.0000   -0.0438   -0.0000   -0.0000   -0.0042    0.0000    0.0000    0.0427
       78 MO     7d2+      -0.0378   -0.0000   -0.0000    0.0310    0.0000    0.0000    0.0026   -0.0000   -0.0000    0.0157
       79 MO     8d2+       0.0332    0.0000    0.0000   -0.0274   -0.0000   -0.0000   -0.0025    0.0000   -0.0000   -0.0061
       80 MO     9d2+      -0.0229   -0.0000   -0.0000    0.0190    0.0000    0.0000    0.0016   -0.0000   -0.0000   -0.0045
       81 MO    10d2+       0.0217    0.0000    0.0000   -0.0188   -0.0000   -0.0000   -0.0017    0.0000   -0.0000   -0.0021
       82 MO    11d2+      -0.0033   -0.0000   -0.0000    0.0025   -0.0000   -0.0000   -0.0003    0.0000    0.0000    0.0001
       83 MO     4f3-      -0.0000   -0.0000   -0.0000    0.0000   -0.0000   -0.0000    0.0000    0.0000    0.0000   -0.0000
       84 MO     5f3-      -0.0000   -0.0000   -0.0000    0.0000   -0.0000   -0.0000    0.0000   -0.0000   -0.0000   -0.0000
       85 MO     6f3-       0.0000    0.0000    0.0000   -0.0000   -0.0000    0.0000   -0.0000   -0.0000   -0.0000   -0.0000
       86 MO     7f3-      -0.0000   -0.0000   -0.0000    0.0000    0.0000   -0.0000   -0.0000   -0.0000   -0.0000   -0.0000
       87 MO     8f3-      -0.0000   -0.0000   -0.0000    0.0000    0.0000    0.0000   -0.0000    0.0000    0.0000    0.0000
       88 MO     9f3-       0.0000    0.0000    0.0000   -0.0000   -0.0000   -0.0000    0.0000   -0.0000    0.0000   -0.0000
       89 MO     4f2-       0.0000   -0.0000    0.0043    0.0000   -0.0000    0.0016   -0.0000   -0.0000   -0.0000    0.0000
       90 MO     5f2-       0.0000   -0.0000    0.0042    0.0000    0.0000    0.0011   -0.0000   -0.0000   -0.0000    0.0000
       91 MO     6f2-      -0.0000    0.0000   -0.0033   -0.0000    0.0000   -0.0007    0.0000    0.0000    0.0000    0.0000
       92 MO     7f2-       0.0000   -0.0000    0.0029    0.0000    0.0000    0.0005   -0.0000   -0.0000   -0.0000   -0.0000
       93 MO     8f2-       0.0000   -0.0000    0.0024    0.0000   -0.0000    0.0003   -0.0000   -0.0000   -0.0000   -0.0000
       94 MO     9f2-      -0.0000    0.0000   -0.0147   -0.0000   -0.0000   -0.0024    0.0000    0.0000   -0.0000    0.0000
       95 MO     4f1-      -0.0000   -0.0000    0.0020    0.0000   -0.0000   -0.0009    0.0000    0.0000    0.0000    0.0000
       96 MO     5f1-      -0.0000   -0.0000    0.0020    0.0000    0.0000   -0.0001    0.0000   -0.0000   -0.0000   -0.0000
       97 MO     6f1-       0.0000    0.0000   -0.0016   -0.0000   -0.0000   -0.0002    0.0000   -0.0000   -0.0000   -0.0000
       98 MO     7f1-      -0.0000   -0.0000    0.0013    0.0000    0.0000    0.0002   -0.0000   -0.0000   -0.0000   -0.0000
       99 MO     8f1-      -0.0000   -0.0000    0.0009    0.0000    0.0000    0.0002   -0.0000   -0.0000    0.0000    0.0000
      100 MO     9f1-       0.0000    0.0000   -0.0044   -0.0000   -0.0000   -0.0013    0.0000    0.0000    0.0000   -0.0000
      101 MO     4f0        0.0000    0.0002    0.0000    0.0000   -0.0011   -0.0000    0.0000   -0.0014    0.0003   -0.0000
      102 MO     5f0        0.0000    0.0002    0.0000    0.0000    0.0004   -0.0000    0.0000   -0.0003   -0.0014   -0.0000
      103 MO     6f0       -0.0000   -0.0003   -0.0000   -0.0000   -0.0006   -0.0000   -0.0000   -0.0001   -0.0004    0.0000
      104 MO     7f0        0.0000    0.0002    0.0000    0.0000    0.0004    0.0000    0.0000    0.0001   -0.0003    0.0000
      105 MO     8f0       -0.0000   -0.0002    0.0000    0.0000    0.0005    0.0000    0.0000    0.0002   -0.0001    0.0000
      106 MO     9f0        0.0000    0.0026    0.0000    0.0000   -0.0045   -0.0000   -0.0000   -0.0016    0.0014   -0.0000
      107 MO     4f1+       0.0015   -0.0000   -0.0000    0.0020    0.0000   -0.0000   -0.0009    0.0000   -0.0000   -0.0003
      108 MO     5f1+       0.0015   -0.0000   -0.0000    0.0020    0.0000   -0.0000   -0.0001    0.0000    0.0000    0.0006
      109 MO     6f1+      -0.0013    0.0000    0.0000   -0.0016    0.0000   -0.0000   -0.0002   -0.0000    0.0000    0.0006
      110 MO     7f1+       0.0011   -0.0000   -0.0000    0.0013   -0.0000    0.0000    0.0002    0.0000    0.0000    0.0004
      111 MO     8f1+       0.0008   -0.0000   -0.0000    0.0009   -0.0000    0.0000    0.0002    0.0000    0.0000   -0.0002
      112 MO     9f1+      -0.0043    0.0000    0.0000   -0.0044    0.0000   -0.0000   -0.0013   -0.0000   -0.0000    0.0001
      113 MO     4f2+       0.0029    0.0000    0.0000   -0.0043   -0.0000   -0.0000   -0.0016   -0.0000    0.0000    0.0004
      114 MO     5f2+       0.0029    0.0000    0.0000   -0.0042   -0.0000   -0.0000   -0.0011    0.0000    0.0000    0.0001
      115 MO     6f2+      -0.0023   -0.0000   -0.0000    0.0033    0.0000    0.0000    0.0007   -0.0000    0.0000    0.0001
      116 MO     7f2+       0.0020    0.0000    0.0000   -0.0029   -0.0000   -0.0000   -0.0005    0.0000    0.0000   -0.0000
      117 MO     8f2+       0.0016    0.0000    0.0000   -0.0024   -0.0000   -0.0000   -0.0003    0.0000    0.0000   -0.0000
      118 MO     9f2+      -0.0093   -0.0000   -0.0000    0.0147    0.0000    0.0000    0.0024   -0.0000   -0.0000    0.0004
      119 MO     4f3+      -0.0000    0.0016    0.0000    0.0000   -0.0007   -0.0000   -0.0000   -0.0010    0.0002   -0.0000
      120 MO     5f3+      -0.0000    0.0015    0.0000    0.0000    0.0003    0.0000    0.0000   -0.0007   -0.0009    0.0000
      121 MO     6f3+       0.0000   -0.0012   -0.0000   -0.0000   -0.0004   -0.0000   -0.0000    0.0005   -0.0002    0.0000
      122 MO     7f3+      -0.0000    0.0011    0.0000    0.0000    0.0003    0.0000    0.0000   -0.0003   -0.0002    0.0000
      123 MO     8f3+      -0.0000    0.0009    0.0000    0.0000    0.0003    0.0000    0.0000   -0.0003   -0.0001   -0.0000
      124 MO     9f3+       0.0000   -0.0058   -0.0000   -0.0000   -0.0028   -0.0000   -0.0000    0.0019    0.0010    0.0000
      125 MO     5g4-      -0.0000   -0.0000    0.0002    0.0000    0.0000   -0.0001    0.0000    0.0000    0.0000   -0.0000
      126 MO     6g4-       0.0000    0.0000   -0.0003   -0.0000    0.0000    0.0001   -0.0000   -0.0000   -0.0000   -0.0000
      127 MO     7g4-      -0.0000   -0.0000    0.0005    0.0000    0.0000    0.0001   -0.0000   -0.0000   -0.0000   -0.0000
      128 MO     8g4-       0.0000    0.0000   -0.0007   -0.0000   -0.0000   -0.0003    0.0000    0.0000   -0.0000   -0.0000
      129 MO     5g3-       0.0000   -0.0000   -0.0000    0.0000   -0.0000    0.0000    0.0000    0.0000    0.0000   -0.0000
      130 MO     6g3-      -0.0000    0.0000    0.0000    0.0000    0.0000   -0.0000   -0.0000    0.0000   -0.0000    0.0000
      131 MO     7g3-       0.0000   -0.0000   -0.0000    0.0000   -0.0000   -0.0000    0.0000   -0.0000    0.0000    0.0000
      132 MO     8g3-      -0.0000   -0.0000    0.0000   -0.0000    0.0000    0.0000   -0.0000    0.0000    0.0000    0.0000
      133 MO     5g2-      -0.0000    0.0000   -0.0003   -0.0000    0.0000   -0.0001    0.0000   -0.0000    0.0000   -0.0000
      134 MO     6g2-       0.0000   -0.0000    0.0004    0.0000    0.0000    0.0001   -0.0000    0.0000   -0.0000   -0.0000
      135 MO     7g2-      -0.0000    0.0000   -0.0006   -0.0000   -0.0000   -0.0001    0.0000   -0.0000    0.0000   -0.0000
      136 MO     8g2-       0.0000   -0.0000    0.0009    0.0000   -0.0000    0.0001   -0.0000    0.0000   -0.0000   -0.0000
      137 MO     5g1-       0.0000    0.0000   -0.0003   -0.0000    0.0000   -0.0002    0.0000    0.0000    0.0000   -0.0000
      138 MO     6g1-      -0.0000   -0.0000    0.0003    0.0000   -0.0000    0.0002   -0.0000   -0.0000    0.0000   -0.0000
      139 MO     7g1-       0.0000    0.0000   -0.0003   -0.0000    0.0000    0.0000   -0.0000   -0.0000    0.0000   -0.0000
      140 MO     8g1-      -0.0000   -0.0000    0.0004    0.0000   -0.0000   -0.0003    0.0000    0.0000   -0.0000   -0.0000
      141 MO     5g0       -0.0000   -0.0008   -0.0000   -0.0000    0.0000   -0.0000   -0.0000   -0.0000   -0.0000    0.0000
      142 MO     6g0        0.0000    0.0009    0.0000    0.0000   -0.0000    0.0000    0.0000    0.0001    0.0000    0.0000
      143 MO     7g0       -0.0000   -0.0013    0.0000   -0.0000    0.0000    0.0000   -0.0000    0.0002    0.0000    0.0000
      144 MO     8g0        0.0000    0.0018    0.0000    0.0000   -0.0001   -0.0000   -0.0000   -0.0005    0.0000    0.0000
      145 MO     5g1+      -0.0003    0.0000    0.0000   -0.0003    0.0000   -0.0000   -0.0002    0.0000   -0.0000    0.0004
      146 MO     6g1+       0.0004   -0.0000   -0.0000    0.0003   -0.0000    0.0000    0.0002   -0.0000   -0.0000    0.0005
      147 MO     7g1+      -0.0006    0.0000    0.0000   -0.0003    0.0000    0.0000    0.0000   -0.0000   -0.0000    0.0003
      148 MO     8g1+       0.0009   -0.0000   -0.0000    0.0004   -0.0000   -0.0000   -0.0003    0.0000    0.0000    0.0002
      149 MO     5g2+      -0.0002   -0.0000   -0.0000    0.0003    0.0000    0.0000    0.0001    0.0000   -0.0000   -0.0001
      150 MO     6g2+       0.0003    0.0000    0.0000   -0.0004   -0.0000   -0.0000   -0.0001   -0.0000   -0.0000   -0.0001
      151 MO     7g2+      -0.0003   -0.0000   -0.0000    0.0006    0.0000    0.0000    0.0001    0.0000   -0.0000   -0.0001
      152 MO     8g2+       0.0004    0.0000    0.0000   -0.0009   -0.0000   -0.0000   -0.0001    0.0000   -0.0000   -0.0001
      153 MO     5g3+      -0.0000   -0.0001    0.0000   -0.0000   -0.0000    0.0000   -0.0000   -0.0000    0.0001    0.0000
      154 MO     6g3+       0.0000    0.0001    0.0000    0.0000    0.0001    0.0000    0.0000    0.0000    0.0000   -0.0000
      155 MO     7g3+       0.0000   -0.0002    0.0000   -0.0000   -0.0002   -0.0000   -0.0000    0.0001    0.0001   -0.0000
      156 MO     8g3+      -0.0000    0.0003    0.0000    0.0000    0.0003    0.0000    0.0000   -0.0003   -0.0001    0.0000
      157 MO     5g4+       0.0000   -0.0000   -0.0000    0.0002    0.0000   -0.0000   -0.0001    0.0000   -0.0000    0.0002
      158 MO     6g4+      -0.0001    0.0000    0.0000   -0.0003   -0.0000    0.0000    0.0001    0.0000   -0.0000    0.0002
      159 MO     7g4+       0.0001   -0.0000   -0.0000    0.0005    0.0000    0.0000    0.0001   -0.0000   -0.0000    0.0002
      160 MO     8g4+      -0.0002    0.0000    0.0000   -0.0007   -0.0000   -0.0000   -0.0003    0.0000    0.0000    0.0001
      161 MO     6h5-      -0.0000    0.0000   -0.0001   -0.0000    0.0000   -0.0000    0.0000    0.0000    0.0000    0.0000
      162 MO     7h5-       0.0000   -0.0000    0.0001    0.0000   -0.0000    0.0000   -0.0000   -0.0000   -0.0000    0.0000
      163 MO     6h4-       0.0000    0.0000   -0.0001   -0.0000   -0.0000    0.0001   -0.0000   -0.0000    0.0000    0.0000
      164 MO     7h4-      -0.0000   -0.0000    0.0001    0.0000    0.0000   -0.0000    0.0000    0.0000    0.0000    0.0000
      165 MO     6h3-      -0.0000   -0.0000    0.0000    0.0000    0.0000    0.0000    0.0000    0.0000    0.0000   -0.0000
      166 MO     7h3-       0.0000   -0.0000   -0.0000   -0.0000   -0.0000   -0.0000   -0.0000   -0.0000   -0.0000   -0.0000
      167 MO     6h2-      -0.0000    0.0000   -0.0001   -0.0000   -0.0000    0.0000   -0.0000   -0.0000    0.0000    0.0000
      168 MO     7h2-       0.0000   -0.0000    0.0001    0.0000    0.0000    0.0000   -0.0000   -0.0000    0.0000    0.0000
      169 MO     6h1-       0.0000    0.0000   -0.0002   -0.0000    0.0000   -0.0000    0.0000    0.0000    0.0000    0.0000
      170 MO     7h1-      -0.0000   -0.0000    0.0002    0.0000   -0.0000    0.0000   -0.0000   -0.0000    0.0000    0.0000
      171 MO     6h0       -0.0000   -0.0003    0.0000   -0.0000    0.0000    0.0000    0.0000    0.0000    0.0000   -0.0000
      172 MO     7h0        0.0000    0.0003   -0.0000    0.0000   -0.0000   -0.0000    0.0000   -0.0000    0.0000   -0.0000
      173 MO     6h1+      -0.0001    0.0000    0.0000   -0.0002   -0.0000   -0.0000   -0.0000   -0.0000   -0.0000   -0.0001
      174 MO     7h1+       0.0001   -0.0000   -0.0000    0.0002    0.0000    0.0000    0.0000    0.0000   -0.0000   -0.0001
      175 MO     6h2+      -0.0001   -0.0000   -0.0000    0.0001    0.0000   -0.0000   -0.0000    0.0000    0.0000    0.0001
      176 MO     7h2+       0.0001    0.0000    0.0000   -0.0001   -0.0000   -0.0000   -0.0000    0.0000    0.0000    0.0000
      177 MO     6h3+       0.0000   -0.0001   -0.0000   -0.0000    0.0000   -0.0000    0.0000    0.0001    0.0000   -0.0000
      178 MO     7h3+      -0.0000    0.0001    0.0000    0.0000   -0.0000   -0.0000   -0.0000   -0.0000    0.0000    0.0000
      179 MO     6h4+      -0.0001    0.0000    0.0000   -0.0001   -0.0000    0.0000    0.0001   -0.0000   -0.0000   -0.0001
      180 MO     7h4+       0.0001   -0.0000   -0.0000    0.0001    0.0000   -0.0000   -0.0000    0.0000   -0.0000   -0.0000
      181 MO     6h5+      -0.0001   -0.0000   -0.0000    0.0001    0.0000    0.0000    0.0000   -0.0000    0.0000    0.0000
      182 MO     7h5+       0.0001    0.0000    0.0000   -0.0001   -0.0000   -0.0000   -0.0000    0.0000    0.0000    0.0000

          Orbital           21        22        23        24        25        26        27        28        29        30    
          Energy           -0.2925   -0.2871   -0.2868   -0.2868   -0.2765   -0.2741   -0.2741   -0.1846   -0.1500   -0.1500
          Occ. No.          0.0000    0.0000    0.0000    0.0000    0.0000    0.0000    0.0000    0.0000    0.0000    0.0000

        1 MO     1s        -0.0000    0.0000   -0.0000   -0.0000   -0.0000    0.0000   -0.0000    0.0000    0.0000    0.0000
        2 MO     2s        -0.0000   -0.0002    0.0000   -0.0000   -0.0003    0.0000   -0.0000    0.0000    0.0000    0.0000
        3 MO     3s        -0.0000   -0.0017    0.0000   -0.0000   -0.0011   -0.0000    0.0000   -0.0076    0.0000    0.0000
        4 MO     4s         0.0000    0.0065   -0.0000    0.0000    0.0030   -0.0000   -0.0000    0.0488   -0.0000   -0.0000
        5 MO     5s        -0.0000   -0.0312    0.0000   -0.0000   -0.0138    0.0000    0.0000    0.0524    0.0000    0.0000
        6 MO     6s        -0.0000   -0.0243    0.0000   -0.0000   -0.0144    0.0000    0.0000    0.9467   -0.0000   -0.0000
        7 MO     7s         0.0000    0.0095   -0.0000    0.0000    0.0044    0.0000   -0.0000    0.2822   -0.0000   -0.0000
        8 MO     8s         0.0000    0.0047   -0.0000    0.0000    0.0023   -0.0000   -0.0000    0.1249   -0.0000   -0.0000
        9 MO     9s         0.0000    0.0024   -0.0000    0.0000    0.0014   -0.0000   -0.0000    0.0370   -0.0000   -0.0000
       10 MO    10s         0.0000   -0.0001    0.0000   -0.0000   -0.0002    0.0000   -0.0000    0.0012   -0.0000   -0.0000
       11 MO     2px        0.0000   -0.0000    0.0000   -0.0000   -0.0000   -0.0000    0.0007   -0.0000    0.0000    0.0000
       12 MO     3px       -0.0000    0.0000    0.0000   -0.0001   -0.0000   -0.0000    0.0100   -0.0000    0.0000    0.0001
       13 MO     4px        0.0000   -0.0000   -0.0000    0.0001    0.0000    0.0000   -0.0500    0.0000   -0.0000   -0.0001
       14 MO     5px       -0.0000    0.0000   -0.0000    0.0024   -0.0000   -0.0000    0.3607   -0.0000   -0.0000   -0.0003
       15 MO     6px       -0.0000    0.0000   -0.0000    0.0011   -0.0000   -0.0000    0.1838   -0.0000   -0.0000   -0.0003
       16 MO     7px       -0.0000    0.0000   -0.0000    0.0006   -0.0000   -0.0000    0.0813   -0.0000   -0.0000   -0.0004
       17 MO     8px       -0.0000    0.0000    0.0000   -0.0001   -0.0000   -0.0000    0.0181   -0.0000   -0.0000   -0.0000
       18 MO     9px        0.0000   -0.0000   -0.0000    0.0001    0.0000    0.0000   -0.0019   -0.0000   -0.0000   -0.0001
       19 MO    10px        0.0000   -0.0000    0.0000   -0.0001   -0.0000   -0.0000    0.0006   -0.0000    0.0000    0.0000
       20 MO     2py        0.0004   -0.0000    0.0000    0.0000    0.0000    0.0007    0.0000    0.0000   -0.0000    0.0000
       21 MO     3py       -0.0089    0.0000    0.0001    0.0000    0.0000    0.0100    0.0000   -0.0000   -0.0001    0.0000
       22 MO     4py        0.0674   -0.0000   -0.0001   -0.0000   -0.0000   -0.0500   -0.0000    0.0000    0.0001   -0.0000
       23 MO     5py       -0.8427    0.0000   -0.0024   -0.0000    0.0000    0.3607    0.0000   -0.0000    0.0003   -0.0000
       24 MO     6py       -0.3134    0.0000   -0.0011   -0.0000    0.0000    0.1838    0.0000   -0.0000    0.0003   -0.0000
       25 MO     7py       -0.1206    0.0000   -0.0006   -0.0000    0.0000    0.0813    0.0000   -0.0000    0.0004   -0.0000
       26 MO     8py       -0.0146    0.0000    0.0001    0.0000    0.0000    0.0181    0.0000   -0.0000    0.0000   -0.0000
       27 MO     9py        0.0077    0.0000   -0.0001   -0.0000   -0.0000   -0.0019   -0.0000   -0.0000    0.0001   -0.0000
       28 MO    10py        0.0012    0.0000    0.0001    0.0000    0.0000    0.0006    0.0000   -0.0000   -0.0000    0.0000
       29 MO     2pz        0.0000   -0.0000   -0.0000    0.0000   -0.0004    0.0000   -0.0000    0.0000   -0.0000   -0.0000
       30 MO     3pz        0.0000    0.0127   -0.0000   -0.0000   -0.0066    0.0000   -0.0000    0.0012    0.0000   -0.0000
       31 MO     4pz       -0.0000   -0.0825    0.0000    0.0000    0.0345   -0.0000    0.0000   -0.0046   -0.0000   -0.0000
       32 MO     5pz        0.0000    0.8705   -0.0000   -0.0000   -0.2599    0.0000   -0.0000    0.0071    0.0000    0.0000
       33 MO     6pz        0.0000    0.3545   -0.0000   -0.0000   -0.1262    0.0000   -0.0000    0.0197    0.0000    0.0000
       34 MO     7pz        0.0000    0.1428   -0.0000   -0.0000   -0.0544    0.0000   -0.0000    0.0152   -0.0000    0.0000
       35 MO     8pz        0.0000    0.0219   -0.0000   -0.0000   -0.0120    0.0000   -0.0000    0.0066   -0.0000    0.0000
       36 MO     9pz       -0.0000   -0.0071    0.0000    0.0000    0.0018   -0.0000    0.0000    0.0019   -0.0000    0.0000
       37 MO    10pz        0.0000   -0.0008    0.0000    0.0000   -0.0005    0.0000   -0.0000    0.0003   -0.0000    0.0000
       38 MO     3d2-      -0.0090   -0.0000   -0.0366   -0.0000   -0.0000   -0.0253   -0.0000    0.0000    0.0214   -0.0000
       39 MO     4d2-       0.1742    0.0000    0.6952    0.0000    0.0000    0.3572    0.0000    0.0000   -0.2504    0.0000
       40 MO     5d2-       0.1101    0.0000    0.4585    0.0000    0.0000    0.2717    0.0000   -0.0000    0.1273   -0.0000
       41 MO     6d2-       0.0427    0.0000    0.1858    0.0000    0.0000    0.1202    0.0000   -0.0000    0.4716   -0.0000
       42 MO     7d2-       0.0157    0.0000    0.0713    0.0000    0.0000    0.0515    0.0000   -0.0000    0.5494   -0.0000
       43 MO     8d2-      -0.0061   -0.0000   -0.0233   -0.0000    0.0000   -0.0117   -0.0000   -0.0000    0.3446   -0.0000
       44 MO     9d2-      -0.0045   -0.0000   -0.0199   -0.0000    0.0000   -0.0125   -0.0000    0.0000    0.1157   -0.0000
       45 MO    10d2-      -0.0021   -0.0000   -0.0090   -0.0000    0.0000   -0.0064   -0.0000    0.0000    0.0037   -0.0000
       46 MO    11d2-       0.0001   -0.0000   -0.0003   -0.0000    0.0000   -0.0002   -0.0000   -0.0000   -0.0000    0.0000
       47 MO     3d1-      -0.0154    0.0000    0.0213    0.0000   -0.0000   -0.0412   -0.0000    0.0000   -0.0124    0.0000
       48 MO     4d1-       0.2952   -0.0000   -0.4173   -0.0000    0.0000    0.5945    0.0000    0.0000    0.1499   -0.0000
       49 MO     5d1-       0.1851   -0.0000   -0.2745   -0.0000    0.0000    0.4514    0.0000   -0.0000   -0.0768    0.0000
       50 MO     6d1-       0.0713   -0.0000   -0.1113   -0.0000    0.0000    0.2000    0.0000   -0.0000   -0.2827    0.0000
       51 MO     7d1-       0.0263   -0.0000   -0.0425   -0.0000    0.0000    0.0853    0.0000   -0.0000   -0.3293    0.0000
       52 MO     8d1-      -0.0102    0.0000    0.0138    0.0000   -0.0000   -0.0191   -0.0000   -0.0000   -0.2063    0.0000
       53 MO     9d1-      -0.0074    0.0000    0.0120    0.0000   -0.0000   -0.0209   -0.0000    0.0000   -0.0693    0.0000
       54 MO    10d1-      -0.0036    0.0000    0.0052    0.0000   -0.0000   -0.0104   -0.0000    0.0000   -0.0021    0.0000
       55 MO    11d1-       0.0001    0.0000    0.0002    0.0000   -0.0000   -0.0004   -0.0000    0.0000   -0.0000    0.0000
       56 MO     3d0       -0.0000   -0.0122    0.0000    0.0000   -0.0491    0.0000   -0.0000   -0.0011    0.0000    0.0000
       57 MO     4d0        0.0000    0.2379   -0.0000   -0.0000    0.7386   -0.0000    0.0000    0.0005   -0.0000   -0.0000
       58 MO     5d0        0.0000    0.1591   -0.0000   -0.0000    0.5447   -0.0000    0.0000    0.0201    0.0000    0.0000
       59 MO     6d0        0.0000    0.0647   -0.0000   -0.0000    0.2367   -0.0000    0.0000    0.0217    0.0000    0.0000
       60 MO     7d0        0.0000    0.0246   -0.0000   -0.0000    0.0991   -0.0000    0.0000    0.0170    0.0000    0.0000
       61 MO     8d0       -0.0000   -0.0080    0.0000    0.0000   -0.0241    0.0000   -0.0000    0.0063    0.0000    0.0000
       62 MO     9d0       -0.0000   -0.0069    0.0000    0.0000   -0.0248    0.0000   -0.0000    0.0003    0.0000    0.0000
       63 MO    10d0       -0.0000   -0.0030    0.0000   -0.0000   -0.0123    0.0000   -0.0000   -0.0006    0.0000    0.0000
       64 MO    11d0        0.0000   -0.0001    0.0000    0.0000   -0.0004    0.0000   -0.0000   -0.0002   -0.0000   -0.0000
       65 MO     3d1+      -0.0000   -0.0000    0.0000   -0.0213    0.0000    0.0000   -0.0412    0.0000    0.0000    0.0124
       66 MO     4d1+       0.0000    0.0000   -0.0000    0.4173   -0.0000   -0.0000    0.5945   -0.0000   -0.0000   -0.1499
       67 MO     5d1+       0.0000    0.0000   -0.0000    0.2745   -0.0000   -0.0000    0.4514   -0.0000    0.0000    0.0768
       68 MO     6d1+       0.0000    0.0000   -0.0000    0.1113   -0.0000   -0.0000    0.2000   -0.0000    0.0000    0.2827
       69 MO     7d1+       0.0000    0.0000   -0.0000    0.0425   -0.0000   -0.0000    0.0853   -0.0000    0.0000    0.3293
       70 MO     8d1+      -0.0000   -0.0000    0.0000   -0.0138    0.0000    0.0000   -0.0191   -0.0000    0.0000    0.2063
       71 MO     9d1+      -0.0000   -0.0000    0.0000   -0.0120    0.0000    0.0000   -0.0209   -0.0000    0.0000    0.0693
       72 MO    10d1+      -0.0000   -0.0000    0.0000   -0.0052    0.0000    0.0000   -0.0104    0.0000    0.0000    0.0021
       73 MO    11d1+       0.0000   -0.0000    0.0000   -0.0002    0.0000    0.0000   -0.0004    0.0000    0.0000    0.0000
       74 MO     3d2+       0.0000   -0.0000    0.0000   -0.0366   -0.0000   -0.0000    0.0253   -0.0000    0.0000    0.0214
       75 MO     4d2+      -0.0000    0.0000   -0.0000    0.6952    0.0000    0.0000   -0.3572    0.0000   -0.0000   -0.2504
       76 MO     5d2+      -0.0000    0.0000   -0.0000    0.4585    0.0000    0.0000   -0.2717    0.0000    0.0000    0.1273
       77 MO     6d2+      -0.0000    0.0000   -0.0000    0.1858    0.0000    0.0000   -0.1202    0.0000    0.0000    0.4716
       78 MO     7d2+      -0.0000    0.0000   -0.0000    0.0713    0.0000    0.0000   -0.0515    0.0000    0.0000    0.5494
       79 MO     8d2+       0.0000   -0.0000    0.0000   -0.0233   -0.0000   -0.0000    0.0117    0.0000    0.0000    0.3446
       80 MO     9d2+       0.0000   -0.0000    0.0000   -0.0199   -0.0000   -0.0000    0.0125    0.0000    0.0000    0.1157
       81 MO    10d2+       0.0000   -0.0000    0.0000   -0.0090   -0.0000   -0.0000    0.0064   -0.0000    0.0000    0.0037
       82 MO    11d2+      -0.0000   -0.0000    0.0000   -0.0003   -0.0000   -0.0000    0.0002   -0.0000   -0.0000   -0.0000
       83 MO     4f3-      -0.0000   -0.0000   -0.0000   -0.0000   -0.0000   -0.0000    0.0000   -0.0000    0.0000   -0.0000
       84 MO     5f3-      -0.0000    0.0000   -0.0000    0.0000   -0.0000    0.0000   -0.0000    0.0000   -0.0000    0.0000
       85 MO     6f3-      -0.0000   -0.0000   -0.0000    0.0000   -0.0000    0.0000   -0.0000   -0.0000   -0.0000    0.0000
       86 MO     7f3-      -0.0000   -0.0000    0.0000    0.0000   -0.0000    0.0000   -0.0000    0.0000   -0.0000    0.0000
       87 MO     8f3-       0.0000    0.0000    0.0000   -0.0000   -0.0000   -0.0000    0.0000    0.0000    0.0000   -0.0000
       88 MO     9f3-      -0.0000    0.0000   -0.0000   -0.0000   -0.0000   -0.0000   -0.0000   -0.0000    0.0000   -0.0000
       89 MO     4f2-       0.0004    0.0000    0.0005    0.0000   -0.0000   -0.0006   -0.0000    0.0000   -0.0005    0.0000
       90 MO     5f2-       0.0001   -0.0000    0.0000    0.0000    0.0000   -0.0000   -0.0000    0.0000    0.0002   -0.0000
       91 MO     6f2-       0.0001   -0.0000    0.0003    0.0000    0.0000    0.0008    0.0000   -0.0000    0.0000   -0.0000
       92 MO     7f2-      -0.0000   -0.0000   -0.0002   -0.0000    0.0000   -0.0002   -0.0000   -0.0000    0.0003   -0.0000
       93 MO     8f2-      -0.0000    0.0000   -0.0001   -0.0000   -0.0000   -0.0003   -0.0000    0.0000   -0.0000    0.0000
       94 MO     9f2-       0.0004    0.0000    0.0012    0.0000    0.0000    0.0020    0.0000    0.0000   -0.0007    0.0000
       95 MO     4f1-       0.0003   -0.0000   -0.0005   -0.0000   -0.0000    0.0005    0.0000   -0.0000    0.0004   -0.0000
       96 MO     5f1-      -0.0006    0.0000    0.0000    0.0000    0.0000   -0.0002   -0.0000    0.0000   -0.0001    0.0000
       97 MO     6f1-      -0.0006    0.0000    0.0000    0.0000    0.0000   -0.0000   -0.0000    0.0000    0.0000   -0.0000
       98 MO     7f1-      -0.0004    0.0000    0.0001    0.0000    0.0000   -0.0002   -0.0000    0.0000   -0.0001    0.0000
       99 MO     8f1-       0.0002    0.0000    0.0000    0.0000   -0.0000   -0.0000   -0.0000    0.0000   -0.0001    0.0000
      100 MO     9f1-      -0.0001   -0.0000   -0.0005   -0.0000    0.0000    0.0006    0.0000   -0.0000    0.0003   -0.0000
      101 MO     4f0        0.0000    0.0004   -0.0000    0.0000    0.0012   -0.0000    0.0000   -0.0002   -0.0000   -0.0000
      102 MO     5f0        0.0000    0.0005    0.0000   -0.0000   -0.0006   -0.0000   -0.0000    0.0008   -0.0000   -0.0000
      103 MO     6f0       -0.0000    0.0004    0.0000   -0.0000   -0.0010    0.0000   -0.0000    0.0001   -0.0000    0.0000
      104 MO     7f0       -0.0000    0.0003    0.0000   -0.0000   -0.0004   -0.0000   -0.0000    0.0001   -0.0000   -0.0000
      105 MO     8f0       -0.0000   -0.0002   -0.0000    0.0000    0.0003   -0.0000    0.0000    0.0002    0.0000    0.0000
      106 MO     9f0        0.0000    0.0002   -0.0000   -0.0000   -0.0006    0.0000    0.0000   -0.0008    0.0000    0.0000
      107 MO     4f1+       0.0000   -0.0000   -0.0000    0.0005   -0.0000   -0.0000    0.0005    0.0000   -0.0000   -0.0004
      108 MO     5f1+      -0.0000   -0.0000    0.0000   -0.0000    0.0000    0.0000   -0.0002   -0.0000    0.0000    0.0001
      109 MO     6f1+      -0.0000    0.0000    0.0000   -0.0000    0.0000    0.0000   -0.0000   -0.0000   -0.0000   -0.0000
      110 MO     7f1+      -0.0000   -0.0000    0.0000   -0.0001    0.0000    0.0000   -0.0002   -0.0000    0.0000    0.0001
      111 MO     8f1+       0.0000   -0.0000    0.0000   -0.0000    0.0000    0.0000   -0.0000   -0.0000    0.0000    0.0001
      112 MO     9f1+      -0.0000    0.0000   -0.0000    0.0005   -0.0000   -0.0000    0.0006    0.0000   -0.0000   -0.0003
      113 MO     4f2+      -0.0000    0.0000   -0.0000    0.0005   -0.0000   -0.0000    0.0006   -0.0000   -0.0000   -0.0005
      114 MO     5f2+      -0.0000    0.0000   -0.0000    0.0000   -0.0000   -0.0000    0.0000   -0.0000    0.0000    0.0002
      115 MO     6f2+      -0.0000    0.0000   -0.0000    0.0003    0.0000    0.0000   -0.0008    0.0000    0.0000    0.0000
      116 MO     7f2+       0.0000    0.0000    0.0000   -0.0002   -0.0000   -0.0000    0.0002    0.0000    0.0000    0.0003
      117 MO     8f2+       0.0000   -0.0000    0.0000   -0.0001   -0.0000   -0.0000    0.0003   -0.0000   -0.0000   -0.0000
      118 MO     9f2+      -0.0000    0.0000   -0.0000    0.0012    0.0000    0.0000   -0.0020    0.0000   -0.0000   -0.0007
      119 MO     4f3+       0.0000    0.0003    0.0000   -0.0000   -0.0004    0.0000   -0.0000   -0.0001    0.0000    0.0000
      120 MO     5f3+      -0.0000    0.0002   -0.0000    0.0000    0.0002   -0.0000    0.0000    0.0006   -0.0000   -0.0000
      121 MO     6f3+      -0.0000    0.0000   -0.0000    0.0000    0.0006   -0.0000    0.0000    0.0001   -0.0000   -0.0000
      122 MO     7f3+      -0.0000    0.0001   -0.0000    0.0000    0.0000   -0.0000   -0.0000    0.0001   -0.0000   -0.0000
      123 MO     8f3+       0.0000    0.0000    0.0000    0.0000   -0.0002    0.0000   -0.0000    0.0001    0.0000    0.0000
      124 MO     9f3+      -0.0000   -0.0002    0.0000   -0.0000    0.0009   -0.0000    0.0000   -0.0006    0.0000    0.0000
      125 MO     5g4-      -0.0002    0.0000   -0.0000   -0.0000    0.0000    0.0001    0.0000    0.0000    0.0000   -0.0000
      126 MO     6g4-      -0.0002    0.0000   -0.0000   -0.0000    0.0000    0.0002    0.0000   -0.0000    0.0000   -0.0000
      127 MO     7g4-      -0.0002    0.0000    0.0000    0.0000    0.0000    0.0000    0.0000    0.0000   -0.0000    0.0000
      128 MO     8g4-      -0.0001   -0.0000   -0.0000   -0.0000    0.0000    0.0002    0.0000   -0.0000    0.0000   -0.0000
      129 MO     5g3-      -0.0000    0.0000    0.0000    0.0000    0.0000   -0.0000    0.0000   -0.0000   -0.0000    0.0000
      130 MO     6g3-       0.0000    0.0000    0.0000    0.0000    0.0000   -0.0000    0.0000    0.0000   -0.0000    0.0000
      131 MO     7g3-       0.0000    0.0000    0.0000    0.0000    0.0000   -0.0000    0.0000   -0.0000   -0.0000    0.0000
      132 MO     8g3-       0.0000   -0.0000    0.0000    0.0000   -0.0000   -0.0000   -0.0000    0.0000   -0.0000    0.0000
      133 MO     5g2-      -0.0001   -0.0000   -0.0003   -0.0000   -0.0000   -0.0002   -0.0000    0.0000    0.0002   -0.0000
      134 MO     6g2-      -0.0001   -0.0000   -0.0002   -0.0000    0.0000   -0.0002   -0.0000    0.0000    0.0001   -0.0000
      135 MO     7g2-      -0.0001   -0.0000   -0.0001   -0.0000    0.0000   -0.0000   -0.0000   -0.0000    0.0000   -0.0000
      136 MO     8g2-      -0.0001   -0.0000   -0.0001   -0.0000   -0.0000   -0.0001   -0.0000    0.0000    0.0000   -0.0000
      137 MO     5g1-      -0.0004    0.0000    0.0003    0.0000   -0.0000   -0.0003   -0.0000   -0.0000   -0.0002    0.0000
      138 MO     6g1-      -0.0005    0.0000    0.0002    0.0000   -0.0000   -0.0001   -0.0000    0.0000   -0.0001    0.0000
      139 MO     7g1-      -0.0003    0.0000    0.0001    0.0000   -0.0000   -0.0001   -0.0000   -0.0000   -0.0000    0.0000
      140 MO     8g1-      -0.0002    0.0000    0.0001    0.0000   -0.0000   -0.0000   -0.0000    0.0000   -0.0001    0.0000
      141 MO     5g0       -0.0000    0.0001   -0.0000   -0.0000   -0.0006    0.0000   -0.0000    0.0000    0.0000    0.0000
      142 MO     6g0        0.0000    0.0003   -0.0000   -0.0000   -0.0006    0.0000   -0.0000   -0.0000   -0.0000    0.0000
      143 MO     7g0        0.0000    0.0003   -0.0000   -0.0000   -0.0003    0.0000   -0.0000   -0.0000   -0.0000    0.0000
      144 MO     8g0        0.0000    0.0002   -0.0000   -0.0000   -0.0004    0.0000   -0.0000   -0.0000    0.0000    0.0000
      145 MO     5g1+      -0.0000   -0.0000    0.0000   -0.0003    0.0000    0.0000   -0.0003    0.0000    0.0000    0.0002
[...]
         2   18       1.05683138E-01  5.26254390E+07  2.31452911E-04  4.05459709E-03  5.26254390E+07
         3    7       3.13422173E-03  2.89613612E-05  1.06526047E+03  9.16625363E-06  1.06526051E+03
         3    9       4.22018971E-03  1.06526054E+03  2.89618361E-05  3.69113403E+02  1.43437397E+03
         3   11       3.93071245E-03  4.20716144E+03  1.09377752E-04  3.01307627E-08  4.20716155E+03
         3   13       3.39422025E-03  2.24586926E+04  5.83881636E-04  8.53399076E-06  2.24586932E+04
         3   15       3.01939745E-03  7.59336909E-04  2.84621629E+04  1.92610695E-03  2.84621655E+04
         3   17       1.10876702E-02  2.84633042E+04  7.59325940E-04  7.60545038E+04  1.04517809E+05
         4    8       3.13422173E-03  2.89613612E-05  1.06526047E+03  9.16625363E-06  1.06526051E+03
         4   10       4.22018971E-03  1.06526054E+03  2.89618361E-05  3.69113403E+02  1.43437397E+03
         4   12       3.93071245E-03  4.20716144E+03  1.09377752E-04  3.01307627E-08  4.20716155E+03
         4   14       3.39422025E-03  2.24586926E+04  5.83881636E-04  8.53399076E-06  2.24586932E+04
         4   16       3.01939745E-03  7.59336909E-04  2.84621629E+04  1.92610695E-03  2.84621655E+04
         4   18       1.10876702E-02  2.84633042E+04  7.59325940E-04  7.60545038E+04  1.04517809E+05
         5    7       4.22017577E-03  1.06525242E+03  2.89615737E-05  3.69095099E+02  1.43434754E+03
         5    9       3.13421229E-03  2.89613600E-05  1.06526230E+03  9.16656253E-06  1.06526234E+03
         5   11       3.93073164E-03  1.09373957E-04  4.20716967E+03  4.19399292E-15  4.20716978E+03
         5   13       3.39430759E-03  5.83869991E-04  2.24592441E+04  1.84856671E-13  2.24592447E+04
         5   15       1.10876243E-02  2.84628109E+04  7.59320286E-04  7.60538986E+04  1.04516710E+05
         5   17       3.01941302E-03  7.59348942E-04  2.84624350E+04  1.92612093E-03  2.84624377E+04
         6    8       4.22017577E-03  1.06525242E+03  2.89615737E-05  3.69095099E+02  1.43434754E+03
         6   10       3.13421229E-03  2.89613600E-05  1.06526230E+03  9.16656253E-06  1.06526234E+03
         6   12       3.93073164E-03  1.09373957E-04  4.20716967E+03  4.19399292E-15  4.20716978E+03
         6   14       3.39430759E-03  5.83869991E-04  2.24592441E+04  1.84856671E-13  2.24592447E+04
         6   16       1.10876243E-02  2.84628109E+04  7.59320286E-04  7.60538986E+04  1.04516710E+05
         6   18       3.01941302E-03  7.59348942E-04  2.84624350E+04  1.92612093E-03  2.84624377E+04
         7   11       9.18737505E-04  2.49409401E-09  1.87349086E+02  1.37035922E-16  1.87349086E+02
         7   13       7.29491679E-04  3.84321643E-08  2.88685997E+03  5.27922064E-14  2.88685997E+03
         7   15       4.98016185E-03  2.22657458E+04  7.34635441E-07  8.54378836E+03  3.08095342E+04
         7   17       3.59918428E-03  7.35447342E-07  2.22663304E+04  2.05587432E-08  2.22663304E+04
         8   12       9.18737505E-04  2.49409401E-09  1.87349086E+02  1.37035922E-16  1.87349086E+02
         8   14       7.29491679E-04  3.84321643E-08  2.88685997E+03  5.27922064E-14  2.88685997E+03
         8   16       4.98016185E-03  2.22657458E+04  7.34635441E-07  8.54378836E+03  3.08095342E+04
         8   18       3.59918428E-03  7.35447342E-07  2.22663304E+04  2.05587432E-08  2.22663304E+04
         9   11       9.18758781E-04  1.87351023E+02  2.49403319E-09  2.08233153E-09  1.87351023E+02
         9   13       7.29540166E-04  2.88704345E+03  3.84201735E-08  5.14130021E-07  2.88704345E+03
         9   15       3.59915150E-03  7.35047891E-07  2.22659276E+04  2.05578384E-08  2.22659276E+04
         9   17       4.98015054E-03  2.22659418E+04  7.35097077E-07  8.54365574E+03  3.08095975E+04
        10   12       9.18758781E-04  1.87351023E+02  2.49403319E-09  2.08233153E-09  1.87351023E+02
        10   14       7.29540166E-04  2.88704345E+03  3.84201735E-08  5.14130021E-07  2.88704345E+03
        10   16       3.59915150E-03  7.35047891E-07  2.22659276E+04  2.05578384E-08  2.22659276E+04
        10   18       4.98015054E-03  2.22659418E+04  7.35097077E-07  8.54365574E+03  3.08095975E+04
        11   13       1.09269023E-02  2.02432978E-06  2.52150348E-15  2.58380974E+04  2.58380974E+04
        11   15       6.97185091E-03  1.27140638E-07  2.88913819E+04  3.78877173E-15  2.88913819E+04
        11   17       6.97181966E-03  2.88914873E+04  1.27008344E-07  9.82377510E-06  2.88914874E+04
        12   14       1.09269023E-02  2.02432978E-06  2.52150348E-15  2.58380974E+04  2.58380974E+04
        12   16       6.97185091E-03  1.27140638E-07  2.88913819E+04  3.78877173E-15  2.88913819E+04
        12   18       6.97181966E-03  2.88914873E+04  1.27008344E-07  9.82377510E-06  2.88914874E+04
        13   15       1.61404872E-03  1.76013392E-09  4.00205324E+02  8.23880888E-18  4.00205324E+02
        13   17       1.61402496E-03  4.00212734E+02  1.76013034E-09  4.15596711E-07  4.00212735E+02
        14   16       1.61404872E-03  1.76013392E-09  4.00205324E+02  8.23880888E-18  4.00205324E+02
        14   18       1.61402496E-03  4.00212734E+02  1.76013034E-09  4.15596711E-07  4.00212735E+02
     -----------------------------------------------------------------------------------------------
--

++ Velocity transition strengths (SO states):
   ------------------------------------------
    for osc. strength at least    1.0000000000000001E-005

      From   To        Osc. strength     Einstein coefficients Ax, Ay, Az (sec-1)    Total A (sec-1)
     -----------------------------------------------------------------------------------------------
         1    3       2.75454351E-01  1.02016620E+08  2.65217623E+00  5.35063259E-05  1.02016623E+08
         1    5       2.75454618E-01  2.65217538E+00  1.02016735E+08  1.14498002E-12  1.02016738E+08
         1    7       1.54271632E-04  8.06260237E-07  6.06498203E+04  1.05336508E-10  6.06498203E+04
         1    9       1.54173144E-04  6.06111188E+04  8.04770603E-07  3.36488448E-05  6.06111188E+04
         1   11       3.38133560E-01  6.16499744E-05  1.47432680E-13  1.39056713E+08  1.39056713E+08
         1   13       5.25567567E-02  5.75242221E-03  1.48486523E-13  2.50160118E+07  2.50160118E+07
         1   15       9.80049609E-02  2.14613050E-04  4.88021863E+07  7.46639508E-14  4.88021863E+07
         1   17       9.80055152E-02  4.88024985E+07  2.14638828E-04  3.68660999E-03  4.88024985E+07
         2    4       2.75454351E-01  1.02016620E+08  2.65217623E+00  5.35063259E-05  1.02016623E+08
         2    6       2.75454618E-01  2.65217538E+00  1.02016735E+08  1.14498002E-12  1.02016738E+08
         2    8       1.54271632E-04  8.06260237E-07  6.06498203E+04  1.05336508E-10  6.06498203E+04
         2   10       1.54173144E-04  6.06111188E+04  8.04770603E-07  3.36488448E-05  6.06111188E+04
         2   12       3.38133560E-01  6.16499744E-05  1.47432680E-13  1.39056713E+08  1.39056713E+08
         2   14       5.25567567E-02  5.75242221E-03  1.48486523E-13  2.50160118E+07  2.50160118E+07
         2   16       9.80049609E-02  2.14613050E-04  4.88021863E+07  7.46639508E-14  4.88021863E+07
         2   18       9.80055152E-02  4.88024985E+07  2.14638828E-04  3.68660999E-03  4.88024985E+07
         3    7       5.92398204E-02  5.47404499E-04  2.01345226E+04  1.90048741E-04  2.01345233E+04
         3    9       8.17551772E-02  2.01345429E+04  5.47406729E-04  7.65281066E+03  2.77873541E+04
         3   11       4.40092522E-04  4.71046088E+02  1.22461016E-05  5.01890217E-08  4.71046101E+02
         3   13       1.45378350E-02  9.61934934E+04  2.50086709E-03  3.80509182E-05  9.61934959E+04
         3   15       1.11650438E-02  2.80781611E-03  1.05246959E+05  7.35137666E-03  1.05246969E+05
         3   17       4.19588880E-02  1.05251070E+05  2.80776890E-03  2.90275328E+05  3.95526401E+05
         4    8       5.92398204E-02  5.47404499E-04  2.01345226E+04  1.90048741E-04  2.01345233E+04
         4   10       8.17551772E-02  2.01345429E+04  5.47406729E-04  7.65281066E+03  2.77873541E+04
         4   12       4.40092522E-04  4.71046088E+02  1.22461016E-05  5.01890217E-08  4.71046101E+02
         4   14       1.45378350E-02  9.61934934E+04  2.50086709E-03  3.80509182E-05  9.61934959E+04
         4   16       1.11650438E-02  2.80781611E-03  1.05246959E+05  7.35137666E-03  1.05246969E+05
         4   18       4.19588880E-02  1.05251070E+05  2.80776890E-03  2.90275328E+05  3.95526401E+05
         5    7       8.17557442E-02  2.01344585E+04  5.47402053E-04  7.65266759E+03  2.77871266E+04
         5    9       5.92396554E-02  5.47403342E-04  2.01345619E+04  1.90051382E-04  2.01345626E+04
         5   11       4.40064565E-04  1.22448642E-05  4.71014787E+02  1.78521589E-14  4.71014799E+02
         5   13       1.45383173E-02  2.50079027E-03  9.61965711E+04  8.80826982E-13  9.61965736E+04
         5   15       4.19587030E-02  1.05247678E+05  2.80779702E-03  2.90274454E+05  3.95522135E+05
         5   17       1.11648790E-02  2.80790353E-03  1.05245869E+05  7.35139067E-03  1.05245879E+05
         6    8       8.17557442E-02  2.01344585E+04  5.47402053E-04  7.65266759E+03  2.77871266E+04
         6   10       5.92396554E-02  5.47403342E-04  2.01345619E+04  1.90051382E-04  2.01345626E+04
         6   12       4.40064565E-04  1.22448642E-05  4.71014787E+02  1.78521589E-14  4.71014799E+02
         6   14       1.45383173E-02  2.50079027E-03  9.61965711E+04  8.80826982E-13  9.61965736E+04
         6   16       4.19587030E-02  1.05247678E+05  2.80779702E-03  2.90274454E+05  3.95522135E+05
         6   18       1.11648790E-02  2.80790353E-03  1.05245869E+05  7.35139067E-03  1.05245879E+05
         7   11       1.10155224E-02  2.99019766E-08  2.24629474E+03  1.09996407E-15  2.24629474E+03
         7   13       1.06883216E-04  5.62850220E-09  4.22976653E+02  1.54253284E-13  4.22976653E+02
         7   15       5.22457794E-04  1.78408585E+03  5.87571862E-08  1.44808566E+03  3.23217151E+03
         7   17       2.88397798E-04  5.90673493E-08  1.78417732E+03  3.48191240E-09  1.78417732E+03
         8   12       1.10155224E-02  2.99019766E-08  2.24629474E+03  1.09996407E-15  2.24629474E+03
         8   14       1.06883216E-04  5.62850220E-09  4.22976653E+02  1.54253284E-13  4.22976653E+02
         8   16       5.22457794E-04  1.78408585E+03  5.87571862E-08  1.44808566E+03  3.23217151E+03
         8   18       2.88397798E-04  5.90673493E-08  1.78417732E+03  3.48191240E-09  1.78417732E+03
         9   11       1.10157582E-02  2.24631404E+03  2.99001902E-08  4.46261590E-08  2.24631404E+03
         9   13       1.06866829E-04  4.22910573E+02  5.62476583E-09  1.14464060E-08  4.22910573E+02
         9   15       2.88408456E-04  5.89313647E-08  1.78422723E+03  3.47584744E-09  1.78422723E+03
         9   17       5.22447978E-04  1.78425672E+03  5.89211152E-08  1.44786804E+03  3.23212477E+03
        10   12       1.10157582E-02  2.24631404E+03  2.99001902E-08  4.46261590E-08  2.24631404E+03
        10   14       1.06866829E-04  4.22910573E+02  5.62476583E-09  1.14464060E-08  4.22910573E+02
        10   16       2.88408456E-04  5.89313647E-08  1.78422723E+03  3.47584744E-09  1.78422723E+03
        10   18       5.22447978E-04  1.78425672E+03  5.89211152E-08  1.44786804E+03  3.23212477E+03
        11   13       7.47122785E-02  1.37901534E-05  2.03019986E-15  1.76667621E+05  1.76667621E+05
        11   15       3.23915609E-02  5.90408789E-07  1.34231242E+05  1.49234077E-15  1.34231242E+05
        11   17       3.23913816E-02  1.34231591E+05  5.90327568E-07  4.54751368E-05  1.34231591E+05
        12   14       7.47122785E-02  1.37901534E-05  2.03019986E-15  1.76667621E+05  1.76667621E+05
        12   16       3.23915609E-02  5.90408789E-07  1.34231242E+05  1.49234077E-15  1.34231242E+05
        12   18       3.23913816E-02  1.34231591E+05  5.90327568E-07  4.54751368E-05  1.34231591E+05
        13   15       1.72687030E-03  1.88444059E-09  4.28181060E+02  1.21552770E-18  4.28181060E+02
        13   17       1.72681314E-03  4.28181119E+02  1.88302078E-09  3.20253165E-07  4.28181120E+02
        14   16       1.72687030E-03  1.88444059E-09  4.28181060E+02  1.21552770E-18  4.28181060E+02
        14   18       1.72681314E-03  4.28181119E+02  1.88302078E-09  3.20253165E-07  4.28181120E+02
     -----------------------------------------------------------------------------------------------
--

++ Length and velocity gauge comparison (SO states):

 --------------------------------------------------
 A comparison between the dipole oscillator strengths in 
 length and velocity gauge will be performed

 All dipole oscillator differences above the tolerance of   0.10000000000000001       will be printed 

 Due to basis set deficiency these oscillator may be problematic 

 The tolerance is defined as ABS(1-O_l/O_v) 
 O_l : dipole oscillator strength in length gauge
 O_p : dipole oscillator strength in velocity gauge
 --------------------------------------------------

  Problematic transitions have been found

      From   To       Difference (%) Osc. st. (len.) Osc. st. (vel.)
     ---------------------------------------------------------------
         1   13            10.218255  5.79271400E-02  5.25567567E-02
         2   14            10.218255  5.79271400E-02  5.25567567E-02
         3    7            94.709265  3.13422173E-03  5.92398204E-02
         3    9            94.838015  4.22018971E-03  8.17551772E-02
         3   11           793.155929  3.93071245E-03  4.40092522E-04
         3   13            76.652505  3.39422025E-03  1.45378350E-02
         3   15            72.956690  3.01939745E-03  1.11650438E-02
         3   17            73.574919  1.10876702E-02  4.19588880E-02
         4    8            94.709265  3.13422173E-03  5.92398204E-02
         4   10            94.838015  4.22018971E-03  8.17551772E-02
         4   12           793.155929  3.93071245E-03  4.40092522E-04
         4   14            76.652505  3.39422025E-03  1.45378350E-02
         4   16            72.956690  3.01939745E-03  1.11650438E-02
         4   18            73.574919  1.10876702E-02  4.19588880E-02
         5    7            94.838068  4.22017577E-03  8.17557442E-02
         5    9            94.709267  3.13421229E-03  5.92396554E-02
         5   11           793.217031  3.93073164E-03  4.40064565E-04
         5   13            76.652679  3.39430759E-03  1.45383173E-02
         5   15            73.574912  1.10876243E-02  4.19587030E-02
         5   17            72.956151  3.01941302E-03  1.11648790E-02
         6    8            94.838068  4.22017577E-03  8.17557442E-02
         6   10            94.709267  3.13421229E-03  5.92396554E-02
         6   12           793.217031  3.93073164E-03  4.40064565E-04
         6   14            76.652679  3.39430759E-03  1.45383173E-02
         6   16            73.574912  1.10876243E-02  4.19587030E-02
         6   18            72.956151  3.01941302E-03  1.11648790E-02
         7   11            91.659610  9.18737505E-04  1.10155224E-02
         7   13           582.512848  7.29491679E-04  1.06883216E-04
         7   15           853.218022  4.98016185E-03  5.22457794E-04
         7   17          1147.992981  3.59918428E-03  2.88397798E-04
         8   12            91.659610  9.18737505E-04  1.10155224E-02
         8   14           582.512848  7.29491679E-04  1.06883216E-04
         8   16           853.218022  4.98016185E-03  5.22457794E-04
         8   18          1147.992981  3.59918428E-03  2.88397798E-04
         9   11            91.659596  9.18758781E-04  1.10157582E-02
         9   13           582.662876  7.29540166E-04  1.06866829E-04
         9   15          1147.935498  3.59915150E-03  2.88408456E-04
         9   17           853.233767  4.98015054E-03  5.22447978E-04
        10   12            91.659596  9.18758781E-04  1.10157582E-02
        10   14           582.662876  7.29540166E-04  1.06866829E-04
        10   16          1147.935498  3.59915150E-03  2.88408456E-04
        10   18           853.233767  4.98015054E-03  5.22447978E-04
        11   13            85.374690  1.09269023E-02  7.47122785E-02
        11   15            78.476335  6.97185091E-03  3.23915609E-02
        11   17            78.476313  6.97181966E-03  3.23913816E-02
        12   14            85.374690  1.09269023E-02  7.47122785E-02
        12   16            78.476335  6.97185091E-03  3.23915609E-02
        12   18            78.476313  6.97181966E-03  3.23913816E-02
     ---------------------------------------------------------------

 Number of problematic transitions =                    48

--

 Electric-dipole - electric-octupole not included
++ I/O STATISTICS
 
  I. General I/O information
  - - - - - - - - - - - - - - - - - - - - - - - - - - - - - - - - - - - - - - - - - - -
  Unit  Name          Flsize      Write/Read            MBytes           Write/Read
                      (MBytes)       Calls              In/Out           Time, sec.
  - - - - - - - - - - - - - - - - - - - - - - - - - - - - - - - - - - - - - - - - - - -
   1  SCRATCH           0.00 .       9/      45 .      0.0/      0.0 .       0/       0
   2  ANNI              0.00 .       0/       0 .      0.0/      0.0 .       0/       0
   3  RUNFILE          14.89 .     322/   10517 .      2.3/     76.3 .       0/       0
   4  ONEINT            5.68 .       0/   24849 .      0.0/   3743.6 .       0/       0
   5  JOBIPH            6.59 .       0/      92 .      0.0/      0.8 .       0/       0
   6  ORDINT          529.03 .       1/    4233 .      0.0/   1058.0 .       0/       0
  - - - - - - - - - - - - - - - - - - - - - - - - - - - - - - - - - - - - - - - - - - -
   *  TOTAL           556.21 .     332/   39736 .      2.3/   4878.7 .       0/       0
  - - - - - - - - - - - - - - - - - - - - - - - - - - - - - - - - - - - - - - - - - - -
 
  II. I/O Access Patterns
  - - - - - - - - - - - - - - - - - - - -
  Unit  Name               % of random
                         Write/Read calls
  - - - - - - - - - - - - - - - - - - - -
   1  SCRATCH             88.9/ 100.0
   2  ANNI                 0.0/   0.0
   3  RUNFILE             28.6/  10.8
   4  ONEINT               0.0/  15.5
   5  JOBIPH               0.0/  76.1
   6  ORDINT             100.0/   0.0
  - - - - - - - - - - - - - - - - - - - -
--
--- Stop Module: rassi at Thu Jan  9 20:55:03 2025 /rc=_RC_ALL_IS_WELL_ ---
*** files: xmldump
    saved to directory /home4/s4752295/Internship/Initial_simulations/Point_charge_model/1_electron/active_space_9_non_rel/Mo/varying_bond_length
--- Module rassi spent 3 seconds ---

.##################.
.# Happy landing! #.
.##################.

    Timing: Wall=58.21 User=45.55 System=10.04

###############################################################################
Hbrk Cluster
Job 14549883 for user s4752295
Finished at: Thu Jan  9 20:55:03 CET 2025

Job details:
============

Job ID                         : 14549883
Name                           : Mo_no_c_light
User                           : s4752295
Partition                      : regularmedium
Nodes                          : node97
Number of Nodes                : 1
Cores                          : 1
Number of Tasks                : 1
State                          : COMPLETED  
Submit                         : 2025-01-09T20:54:00
Start                          : 2025-01-09T20:54:01
End                            : 2025-01-09T20:55:03
Reserved walltime              : 15:00:00
Used walltime                  : 00:01:02
Used CPU time                  : 00:00:57 (Efficiency: 91.20%)
% User (Computation)           : 81.81%
% System (I/O)                 : 18.19%
Total memory reserved          : 25000M
Maximum memory used            : 2.12G

Acknowledgements:
=================

Please see this page for information about acknowledging Hbrk in your publications:

https://wiki.hpc.rug.nl/habrok/introduction/scientific_output

################################################################################
