   This run of MOLCAS is using the pymolcas driver

                             OPE
                             OPE          NMOL  CASOP  ENMOLC A   SO
                 OPE        NMOLC        AS  OP EN  MO LC     AS  OP
                OPENM       OL CA        SO  PE NM  OL CA     SOP EN
                OP EN      MO   LC       AS  OP ENMOL  CASO   PENMOL
                OP  EN     MO   LC       AS  OP EN     MO     LC ASO
               OP   E  NMOL  C  AS       OP  EN MO     LC     AS  OP
               OP  E   NMO   LC AS        OPEN  MO     LCASOP EN   M
               O  PEN   MO  LCA  SO
            OPE   NMO   L   CAS    OP
        OPENMOL  CASOP     ENMOL   CASOPE
     OPENMOLCA   SOPENMOLCASOPEN   MOLCASOPE
    OPENMOLCAS   OP           EN   MOL    CAS
    OPENMOLCAS       OP  ENM        O     LCA
    OPENMOLCAS    OPEN  MOLCASO     P  E  NMO
    OPENMOLCAS     OP               E  N  MOL
    OPENMOLCA   SO           PENM   O  L  CAS    OPEN    MO    LCAS
    OPENMOLCA   SOP           ENM   O  L  CAS   OP  EN  MOLC  AS   O
    OPENMOLCA   SOPE           NM      O  LCA   S      OP  EN MO
    OPENMOLC                AS         O  PEN   M      OL  CA  SOPE
    OPENMO        LCASOPE  NMOL        C  ASO   P      ENMOLC     AS
    OPE     NMO      LCA  SO     P     E   NM   OL  CA SO  PE N   MO
          OPENMOLCA            SOPE   NMO        LCAS  O    P  ENMO
     OPENMOLCASOPENMOLCASOPENMOLCASOPENMOLCA
        OPENMOLCASOPENMOLCASOPENMOLCASOPE
            OPENMOLCASOPENMOLCASOPENM
               OPENMOLCASOPENMOLCA        version: o91e1abe7de707b ?
                   OPENMOLCASO
                       OPE                tag:

 OpenMolcas is free software; you can redistribute it and/or modify it
 under the terms of the GNU Lesser General Public License version 2.1.
 OpenMolcas is distributed in the hope that it will be useful, but it
 is provided "as is" and without any express or implied warranties.
 For more details see the full text of the license in the file
 LICENSE or in <http://www.gnu.org/licenses/>.

                 Copyright (C) The OpenMolcas Authors
           For the author list and the recommended citation,
                   consult the file CONTRIBUTORS.md

           *************************************************
           * pymolcas version py2.10                       *
           *   build 3068ae8b88c9345ec6cfef6fef7f1169      *
           *   (after the EMIL interpreter by V. Veryazov) *
           *************************************************

configuration info
------------------
Host name: login1 (Linux)
C Compiler ID: GNU
C flags: -std=gnu99
Fortran Compiler ID: GNU
Fortran flags: -fno-aggressive-loop-optimizations -cpp -fdefault-integer-8 -fmax-stack-var-size=1048576
Definitions: _MOLCAS_;_I8_;_LINUX_;_MKL_
Parallel: OFF (GA=OFF)


   ----------------------------------------------------------------------------------------------------------------------------------------------
  |
  |           Project: molybdenum_so_cf
  |    Submitted from: /home4/s4752295/Internship/Initial_simulations/Point_charge_model/1_electron/active_space_9_non_rel/Mo/varying_bond_length
  |      Scratch area: /tmp/molybdenum_so_cf
  |   Save outputs to: /home4/s4752295/Internship/Initial_simulations/Point_charge_model/1_electron/active_space_9_non_rel/Mo/varying_bond_length
  |            Molcas: /home4/s4752295/Internship/Molcas/recomp_try/OpenMolcas-master/build
  |
  | Scratch area is empty
  |
  |    MOLCAS_DRIVER = /home4/s4752295/Internship/Molcas/bin/pymolcas
  |    MOLCAS_NPROCS = 1
  |    MOLCAS_SOURCE = /home4/s4752295/Internship/Molcas/recomp_try/OpenMolcas-master
  | MOLCAS_STRUCTURE = 0
  |
   ----------------------------------------------------------------------------------------------------------------------------------------------

++ ---------   Input file   ---------

&SEWARD
AMFi

CLIG
$R

Basis Set
Mo.ANO-rcc.Roos.21s18p13d6f4g2h.10s9p9d6f4g2h.
Spherical d
Mo            0.0       0.0     0.0
End of Basis

Xfield

4
0.000000,  0.000,  11.34        -1.0
9.820728,  0.000,  -5.67        -1.0
-4.910364,  8.505,  -5.67       -1.0
-4.910364, -8.505,  -5.67       -1.0

End of input

&SCF
Occupied
18
Iterations
   50  100
End of Input

&RASSCF
LumOrb
Symmetry
1
Spin
2
Nactel
1 0 0
CIRoot
9 9 1
inactive
18
ras2
9
End of Input

>>> COPY molybdenum_so_cf.JobIph $SLURM_SUBMIT_DIR/molybdenum_so_cf.doublet.JobIph

>>> COPY $SLURM_SUBMIT_DIR/molybdenum_so_cf.doublet.JobIph ./JOB002

&RASSI
NROFJobIph
1 All
SpinOrbit
End of Input

EOF

-- ----------------------------------

--- Start Module: seward at Thu Dec 26 11:54:41 2024 ---

()()()()()()()()()()()()()()()()()()()()()()()()()()()()()()()()()()()()()()()()()()()()()()()()()()

                                              &SEWARD

                                   only a single process is used
                       available to each process: 4.1 GB of memory, 1 thread?
                                            pid: 1521360
()()()()()()()()()()()()()()()()()()()()()()()()()()()()()()()()()()()()()()()()()()()()()()()()()()

 The speed of LIGHT in this CALCULATION =   137.03599917700001     
               SEWARD will generate:
                  Multipole Moment integrals up to order  2
                  Kinetic Energy integrals
                  Nuclear Attraction integrals (point charge)
                  One-Electron Hamiltonian integrals
                  Velocity integrals
                  Relativistic Douglas-Kroll-Hess integrals:
                    - Parametrization         : EXP
                    - DKH order of Hamiltonian: 2
                    - DKH order of Properties : 0
                         - multipole moment operators
                         - electric potential operators
                         - contact operators
                  External field from     4 point(s) added to the one-electron Hamiltonian
                  Orbital angular momentum around ( 0.0000  0.0000  0.0000 )
                  Velocity quadrupole around ( 0.0000  0.0000  0.0000 )
                  Atomic mean-field integrals
                  Two-Electron Repulsion integrals

                   Integrals are discarded if absolute value <: 0.10E-13
                   Integral cutoff threshold is set to       <: 0.10E-15

++    Symmetry information:
      ---------------------

                    Character Table for C1 

                             E  
                    a        1  x, y, xy, Rz, z, xz, Ry, yz, Rx, I
--


++    Basis set information:
      ----------------------


      Basis set label: MO.ANO-RCC.ROOS.21S18P13D6F4G2H.10S9P9D6F4G2H......

      Electronic valence basis set:
      ------------------
      Associated Effective Charge  42.000000 au
      Associated Actual Charge     42.000000 au
      Nuclear Model: Point charge

      Shell  nPrim  nBasis  Cartesian Spherical Contaminant
         s      21      10        X                  
         p      18       9        X                  
         d      13       9                 X         
         f       6       6                 X         
         g       4       4                 X         
         h       2       2                 X         
--


++    Molecular structure info:
      -------------------------

                    ************************************************ 
                    **** Cartesian Coordinates / Bohr, Angstrom **** 
                    ************************************************ 

     Center  Label                x              y              z                     x              y              z
        1      MO               0.000000       0.000000       0.000000              0.000000       0.000000       0.000000
--


++    Operator info:
      --------------


  Net charge from external field:   -4.0000000000000000     
--


            Nuclear Potential Energy              0.00000000 au

                    Nuclear-External Field Potential Energy     -14.81481485 au
                    External Field Potential Energy               0.32910501 au 


            Total Nuclear Potential Energy            -14.81481485 au


      Basis set specifications :
      Symmetry species         a  
      Basis functions          182

 Sorry, Molden does not know how to handle
 functions with angular momentum larger than g
Note: The following floating-point exceptions are signalling: IEEE_UNDERFLOW_FLAG IEEE_DENORMAL
--- Stop Module: seward at Thu Dec 26 11:54:50 2024 /rc=_RC_ALL_IS_WELL_ ---
*** files: molybdenum_so_cf.GssOrb xmldump
    saved to directory /home4/s4752295/Internship/Initial_simulations/Point_charge_model/1_electron/active_space_9_non_rel/Mo/varying_bond_length
--- Module seward spent 8 seconds ---

*** symbolic link created: INPORB -> molybdenum_so_cf.GssOrb
--- Start Module: scf at Thu Dec 26 11:54:50 2024 ---

()()()()()()()()()()()()()()()()()()()()()()()()()()()()()()()()()()()()()()()()()()()()()()()()()()

                                                &SCF

                                   only a single process is used
                       available to each process: 4.1 GB of memory, 1 thread?
                                            pid: 1521410
()()()()()()()()()()()()()()()()()()()()()()()()()()()()()()()()()()()()()()()()()()()()()()()()()()

++    Input section:
      --------------

      Header of the integral files:
      
       Integrals generated by seward 4.2.0  , Thu Dec 26 11:54:41 2024


      Cartesian coordinates in Angstrom:
      -----------------------------------------------------
      No.  Label        X            Y            Z        
      -----------------------------------------------------
       1   MO         0.00000000   0.00000000   0.00000000
      -----------------------------------------------------
      Nuclear repulsion energy =  -14.81481485
--

++    Orbital specifications:
      -----------------------

      Symmetry species               1
                                     a
      Frozen orbitals                0
      Occupied orbitals             18
      Secondary orbitals           164
      Deleted orbitals               0
      Total number of orbitals     182
      Number of basis functions    182
--

      Molecular charge                           6.000

++    Optimization specifications:
      ----------------------------

      SCF Algorithm: Conventional
      Minimized density differences are used
      Number of density matrices in core                5
      Maximum number of NDDO SCF iterations            50
      Maximum number of HF SCF iterations             100
      Threshold for SCF energy change            0.10E-08
      Threshold for density matrix               0.10E-03
      Threshold for Fock matrix                  0.15E-03
      Threshold for linear dependence            0.10E-08
      Threshold at which DIIS is turned on       0.15E+00
      Threshold at which QNR/C2DIIS is turned on 0.75E-01
      Threshold for Norm(delta) (QNR/C2DIIS)     0.20E-04
      DIIS extrapolation of the SCF procedure
      All orbitals punched on: SCFORB
--

      Detected guessorb starting orbitals                                             


++ Convergence information
                                   SCF        iterations: Energy and convergence statistics

Iter     Tot. SCF        One-elec.       Two-elec.     Energy      Max Dij or  Max Fij      DNorm      TNorm      AccCon     Time
         Energy          Energy          Energy        Change      Delta Norm                                                in Sec.

 The total and one-electron energies are shifted by a value of      4000. a.u.

   1   -39.925594463 -1431.135228903  1406.024449289   0.00E+00    0.20E+00*   0.22E+00*    0.85E+01   0.55E+03   None         1.
   2   -40.176695762 -1448.925392814  1423.563511900  -0.25E+00*   0.13E-01*   0.52E-01*    0.79E+00   0.56E+03   EDIIS        1.
   3   -40.183716847 -1444.536733045  1419.167831046  -0.70E-02*   0.44E-02*   0.26E-01*    0.87E-01   0.55E+03   EDIIS        1.
   4   -40.184723928 -1446.401331799  1421.031422720  -0.10E-02*   0.52E-03*   0.76E-02*    0.11E-01   0.55E+03   c2DIIS       1.
   5   -40.184933828 -1445.867428687  1420.497309707  -0.21E-03*   0.58E-04*   0.12E-03     0.25E-03   0.55E+03   QNRc2DIIS    1.
   6   -40.184933869 -1445.860173404  1420.490054383  -0.41E-07*   0.14E-04    0.48E-04     0.16E-04   0.55E+03   QNRc2DIIS    1.
   7   -40.184933874 -1445.862640402  1420.492521376  -0.42E-08*   0.64E-06    0.17E-05     0.37E-03   0.55E+03   QNRc2DIIS    1.
   8   -40.184933874 -1445.862597866  1420.492478841  -0.32E-11    0.99E-07    0.13E-06     0.19E-01   0.55E+03   QNRc2DIIS    1.

       Convergence after  8 Macro Iterations
--

 *****************************************************************************************************************************
 *                                                                                                                           *
 *                                             SCF/KS-DFT Program, Final results                                             *
 *                                                                                                                           *
 *                                                                                                                           *
 *                                                                                                                           *
 *                                                       Final Results                                                       *
 *                                                                                                                           *
 *****************************************************************************************************************************

::    Total SCF energy                              -4040.1849338735
      One-electron energy                           -5445.8625978658
      Two-electron energy                            1420.4924788406
      Nuclear repulsion energy                        -14.8148148483
      Kinetic energy (interpolated)                  4470.0592916198
      Virial theorem                                    0.9038325155
      Total spin, S(S+1)                                0.0000000000
      Total spin, S                                     0.0000000000
      Max non-diagonal density matrix element           0.0000001550
      Max non-diagonal Fock matrix element              0.0000000381


      All orbitals with orbital energies smaller than  E(LUMO)+0.5 are printed

++    Molecular orbitals:
      -------------------

      Title: SCF orbitals

      Molecular orbitals for symmetry species 1: a  

          Orbital            1         2         3         4         5         6         7         8         9        10    
          Energy         -741.5218 -109.9851  -98.4374  -98.4374  -98.4374  -22.2524  -18.3531  -18.3531  -18.3531  -11.9860
          Occ. No.          2.0000    2.0000    2.0000    2.0000    2.0000    2.0000    2.0000    2.0000    2.0000    2.0000

        1 MO     1s         1.0000   -0.0000    0.0000   -0.0000   -0.0000    0.0000   -0.0000   -0.0000    0.0000    0.0000
        2 MO     2s         0.0000    1.0000   -0.0000   -0.0000   -0.0000    0.0001    0.0000    0.0000   -0.0000    0.0000
        3 MO     3s        -0.0000   -0.0001   -0.0000    0.0000    0.0000    1.0000    0.0000    0.0000   -0.0000   -0.0000
        4 MO     4s         0.0000    0.0000    0.0000   -0.0000   -0.0000   -0.0015   -0.0000    0.0000    0.0000    0.0000
        5 MO     5s        -0.0000    0.0000   -0.0000    0.0000    0.0000    0.0002   -0.0000   -0.0000   -0.0000    0.0000
        6 MO     6s         0.0000    0.0000    0.0000   -0.0000   -0.0000   -0.0002   -0.0000   -0.0000    0.0000   -0.0000
        7 MO     7s        -0.0000   -0.0000   -0.0000    0.0000    0.0000    0.0006   -0.0000   -0.0000   -0.0000   -0.0000
        8 MO     8s         0.0000    0.0000    0.0000   -0.0000   -0.0000   -0.0005   -0.0000   -0.0000    0.0000   -0.0000
        9 MO     9s        -0.0000   -0.0000   -0.0000    0.0000    0.0000    0.0004   -0.0000   -0.0000   -0.0000   -0.0000
       10 MO    10s         0.0000    0.0000    0.0000   -0.0000   -0.0000   -0.0003   -0.0000   -0.0000    0.0000   -0.0000
       11 MO     2px       -0.0000    0.0000    0.9905   -0.1375    0.0000    0.0000    0.0001    0.0000   -0.0000   -0.0000
       12 MO     3px        0.0000   -0.0000   -0.0001    0.0000   -0.0000   -0.0000    0.9757    0.2192   -0.0000    0.0000
       13 MO     4px        0.0000    0.0000    0.0001   -0.0000    0.0000   -0.0000   -0.0021   -0.0005    0.0000   -0.0000
       14 MO     5px        0.0000   -0.0000   -0.0000    0.0000   -0.0000    0.0000    0.0004    0.0001   -0.0000   -0.0000
       15 MO     6px       -0.0000    0.0000    0.0000   -0.0000    0.0000   -0.0000   -0.0008   -0.0002    0.0000    0.0000
       16 MO     7px        0.0000   -0.0000   -0.0000    0.0000   -0.0000    0.0000    0.0005    0.0001   -0.0000   -0.0000
       17 MO     8px       -0.0000    0.0000    0.0000   -0.0000    0.0000   -0.0000   -0.0005   -0.0001    0.0000    0.0000
       18 MO     9px        0.0000   -0.0000   -0.0000    0.0000   -0.0000    0.0000    0.0004    0.0001   -0.0000   -0.0000
       19 MO    10px       -0.0000    0.0000    0.0000   -0.0000    0.0000   -0.0000   -0.0002   -0.0000    0.0000    0.0000
       20 MO     2py        0.0000    0.0000    0.1375    0.9905   -0.0000    0.0000   -0.0000    0.0001   -0.0000   -0.0000
       21 MO     3py        0.0000   -0.0000   -0.0000   -0.0001    0.0000    0.0000   -0.2192    0.9757   -0.0000    0.0000
       22 MO     4py       -0.0000    0.0000    0.0000    0.0001   -0.0000   -0.0000    0.0005   -0.0021    0.0000   -0.0000
       23 MO     5py        0.0000   -0.0000   -0.0000   -0.0000    0.0000    0.0000   -0.0001    0.0004   -0.0000   -0.0000
       24 MO     6py       -0.0000    0.0000    0.0000    0.0000   -0.0000   -0.0000    0.0002   -0.0008    0.0000    0.0000
       25 MO     7py        0.0000   -0.0000   -0.0000   -0.0000    0.0000    0.0000   -0.0001    0.0005   -0.0000   -0.0000
       26 MO     8py       -0.0000    0.0000    0.0000    0.0000   -0.0000   -0.0000    0.0001   -0.0005    0.0000    0.0000
       27 MO     9py        0.0000   -0.0000   -0.0000   -0.0000    0.0000    0.0000   -0.0001    0.0004   -0.0000   -0.0000
       28 MO    10py       -0.0000    0.0000    0.0000    0.0000   -0.0000   -0.0000    0.0000   -0.0002    0.0000    0.0000
       29 MO     2pz        0.0000    0.0000   -0.0000    0.0000    1.0000   -0.0000    0.0000    0.0000    0.0001    0.0000
       30 MO     3pz       -0.0000    0.0000    0.0000   -0.0000   -0.0001    0.0000    0.0000    0.0000    1.0000    0.0000
       31 MO     4pz        0.0000   -0.0000   -0.0000    0.0000    0.0001    0.0000   -0.0000   -0.0000   -0.0022   -0.0000
       32 MO     5pz       -0.0000    0.0000    0.0000   -0.0000   -0.0000   -0.0000    0.0000    0.0000    0.0004    0.0000
       33 MO     6pz        0.0000   -0.0000   -0.0000    0.0000    0.0000    0.0000   -0.0000   -0.0000   -0.0008   -0.0000
       34 MO     7pz       -0.0000    0.0000    0.0000   -0.0000   -0.0000   -0.0000    0.0000    0.0000    0.0005    0.0000
       35 MO     8pz        0.0000   -0.0000   -0.0000    0.0000    0.0000    0.0000   -0.0000   -0.0000   -0.0005    0.0000
       36 MO     9pz       -0.0000    0.0000    0.0000   -0.0000   -0.0000   -0.0000    0.0000    0.0000    0.0004   -0.0000
       37 MO    10pz        0.0000   -0.0000   -0.0000    0.0000    0.0000    0.0000   -0.0000   -0.0000   -0.0002   -0.0000
       38 MO     3d2-       0.0000    0.0000   -0.0000   -0.0000   -0.0000   -0.0000   -0.0000    0.0000   -0.0000   -0.0042
       39 MO     4d2-      -0.0000   -0.0000   -0.0000   -0.0000    0.0000    0.0000   -0.0000    0.0000   -0.0000    0.0000
       40 MO     5d2-       0.0000    0.0000    0.0000    0.0000    0.0000   -0.0000    0.0000   -0.0000   -0.0000   -0.0000
       41 MO     6d2-      -0.0000   -0.0000   -0.0000   -0.0000   -0.0000    0.0000   -0.0000    0.0000    0.0000    0.0000
       42 MO     7d2-       0.0000    0.0000   -0.0000   -0.0000   -0.0000   -0.0000   -0.0000    0.0000    0.0000   -0.0000
       43 MO     8d2-      -0.0000   -0.0000    0.0000    0.0000    0.0000    0.0000    0.0000   -0.0000    0.0000    0.0000
       44 MO     9d2-      -0.0000    0.0000   -0.0000   -0.0000    0.0000   -0.0000   -0.0000    0.0000   -0.0000   -0.0000
       45 MO    10d2-       0.0000   -0.0000    0.0000    0.0000    0.0000    0.0000    0.0000   -0.0000    0.0000    0.0000
       46 MO    11d2-      -0.0000    0.0000   -0.0000   -0.0000    0.0000    0.0000   -0.0000    0.0000    0.0000   -0.0000
       47 MO     3d1-       0.0000   -0.0000    0.0000    0.0000   -0.0000   -0.0000   -0.0000    0.0000   -0.0000    0.0000
       48 MO     4d1-      -0.0000    0.0000    0.0000    0.0000   -0.0000    0.0000   -0.0000    0.0000   -0.0000   -0.0000
       49 MO     5d1-       0.0000   -0.0000   -0.0000   -0.0000    0.0000   -0.0000    0.0000   -0.0000    0.0000    0.0000
       50 MO     6d1-      -0.0000    0.0000    0.0000    0.0000   -0.0000    0.0000   -0.0000    0.0000   -0.0000   -0.0000
       51 MO     7d1-       0.0000   -0.0000   -0.0000   -0.0000    0.0000   -0.0000    0.0000   -0.0000    0.0000    0.0000
       52 MO     8d1-      -0.0000    0.0000    0.0000    0.0000   -0.0000   -0.0000   -0.0000    0.0000   -0.0000   -0.0000
       53 MO     9d1-       0.0000   -0.0000   -0.0000   -0.0000    0.0000    0.0000    0.0000   -0.0000    0.0000    0.0000
       54 MO    10d1-      -0.0000    0.0000    0.0000    0.0000   -0.0000   -0.0000   -0.0000    0.0000   -0.0000   -0.0000
       55 MO    11d1-       0.0000   -0.0000   -0.0000   -0.0000    0.0000    0.0000   -0.0000    0.0000   -0.0000    0.0000
       56 MO     3d0       -0.0000   -0.0000    0.0000   -0.0000    0.0000   -0.0000    0.0000    0.0000    0.0000   -0.0000
       57 MO     4d0        0.0000    0.0000   -0.0000   -0.0000    0.0000   -0.0000    0.0000    0.0000    0.0000    0.0000
       58 MO     5d0       -0.0000   -0.0000    0.0000   -0.0000   -0.0000    0.0000   -0.0000   -0.0000   -0.0000   -0.0000
       59 MO     6d0        0.0000    0.0000   -0.0000    0.0000    0.0000   -0.0000    0.0000    0.0000    0.0000    0.0000
       60 MO     7d0       -0.0000   -0.0000    0.0000   -0.0000   -0.0000    0.0000   -0.0000   -0.0000   -0.0000   -0.0000
       61 MO     8d0        0.0000    0.0000   -0.0000    0.0000    0.0000   -0.0000    0.0000    0.0000    0.0000    0.0000
       62 MO     9d0       -0.0000   -0.0000    0.0000   -0.0000   -0.0000    0.0000   -0.0000   -0.0000   -0.0000   -0.0000
       63 MO    10d0        0.0000    0.0000   -0.0000    0.0000    0.0000   -0.0000    0.0000    0.0000    0.0000    0.0000
       64 MO    11d0       -0.0000   -0.0000    0.0000   -0.0000   -0.0000    0.0000    0.0000    0.0000    0.0000   -0.0000
       65 MO     3d1+      -0.0000    0.0000    0.0000   -0.0000    0.0000    0.0000    0.0000    0.0000   -0.0000    0.0049
       66 MO     4d1+      -0.0000   -0.0000    0.0000   -0.0000    0.0000    0.0000    0.0000    0.0000   -0.0000   -0.0000
       67 MO     5d1+       0.0000    0.0000   -0.0000    0.0000   -0.0000   -0.0000   -0.0000   -0.0000    0.0000    0.0000
       68 MO     6d1+      -0.0000   -0.0000    0.0000   -0.0000    0.0000    0.0000    0.0000    0.0000   -0.0000   -0.0000
       69 MO     7d1+       0.0000    0.0000   -0.0000    0.0000   -0.0000   -0.0000   -0.0000   -0.0000    0.0000    0.0000
       70 MO     8d1+      -0.0000   -0.0000    0.0000   -0.0000    0.0000    0.0000    0.0000    0.0000   -0.0000   -0.0000
       71 MO     9d1+       0.0000    0.0000   -0.0000    0.0000   -0.0000   -0.0000   -0.0000   -0.0000    0.0000    0.0000
       72 MO    10d1+      -0.0000   -0.0000    0.0000   -0.0000    0.0000    0.0000    0.0000    0.0000   -0.0000   -0.0000
       73 MO    11d1+      -0.0000    0.0000   -0.0000    0.0000   -0.0000   -0.0000    0.0000    0.0000   -0.0000    0.0000
       74 MO     3d2+       0.0000   -0.0000    0.0000   -0.0000    0.0000   -0.0000   -0.0000   -0.0000    0.0000    1.0000
       75 MO     4d2+       0.0000    0.0000    0.0000   -0.0000    0.0000    0.0000   -0.0000   -0.0000   -0.0000   -0.0021
       76 MO     5d2+      -0.0000   -0.0000   -0.0000    0.0000   -0.0000   -0.0000    0.0000    0.0000    0.0000    0.0013
       77 MO     6d2+       0.0000    0.0000    0.0000   -0.0000    0.0000    0.0000   -0.0000   -0.0000   -0.0000   -0.0005
       78 MO     7d2+      -0.0000   -0.0000    0.0000   -0.0000    0.0000   -0.0000   -0.0000   -0.0000    0.0000    0.0002
       79 MO     8d2+       0.0000    0.0000   -0.0000    0.0000    0.0000    0.0000    0.0000    0.0000   -0.0000   -0.0003
       80 MO     9d2+      -0.0000   -0.0000    0.0000   -0.0000    0.0000   -0.0000   -0.0000   -0.0000    0.0000    0.0003
       81 MO    10d2+       0.0000    0.0000   -0.0000    0.0000   -0.0000    0.0000    0.0000    0.0000    0.0000   -0.0004
       82 MO    11d2+      -0.0000   -0.0000    0.0000   -0.0000    0.0000   -0.0000   -0.0000   -0.0000   -0.0000    0.0000
       83 MO     4f3-      -0.0000    0.0000   -0.0000   -0.0000    0.0000    0.0000   -0.0000    0.0000   -0.0000    0.0000
       84 MO     5f3-      -0.0000    0.0000   -0.0000   -0.0000    0.0000    0.0000   -0.0000    0.0000    0.0000    0.0000
       85 MO     6f3-       0.0000   -0.0000    0.0000   -0.0000   -0.0000   -0.0000    0.0000   -0.0000    0.0000   -0.0000
       86 MO     7f3-      -0.0000    0.0000   -0.0000   -0.0000    0.0000    0.0000   -0.0000    0.0000   -0.0000   -0.0000
       87 MO     8f3-       0.0000   -0.0000   -0.0000   -0.0000   -0.0000    0.0000   -0.0000    0.0000    0.0000   -0.0000
       88 MO     9f3-      -0.0000    0.0000    0.0000    0.0000   -0.0000   -0.0000   -0.0000    0.0000   -0.0000    0.0000
       89 MO     4f2-       0.0000   -0.0000    0.0000    0.0000   -0.0000   -0.0000    0.0000   -0.0000    0.0000   -0.0000
       90 MO     5f2-       0.0000   -0.0000   -0.0000   -0.0000   -0.0000   -0.0000    0.0000   -0.0000    0.0000   -0.0000
       91 MO     6f2-      -0.0000    0.0000    0.0000    0.0000   -0.0000    0.0000   -0.0000    0.0000   -0.0000    0.0000
       92 MO     7f2-       0.0000   -0.0000   -0.0000   -0.0000    0.0000   -0.0000   -0.0000    0.0000    0.0000   -0.0000
       93 MO     8f2-       0.0000   -0.0000    0.0000    0.0000   -0.0000   -0.0000    0.0000   -0.0000    0.0000   -0.0000
       94 MO     9f2-       0.0000    0.0000    0.0000    0.0000   -0.0000    0.0000    0.0000   -0.0000   -0.0000    0.0000
       95 MO     4f1-       0.0000    0.0000   -0.0000   -0.0000    0.0000    0.0000    0.0000   -0.0000    0.0000    0.0000
       96 MO     5f1-       0.0000    0.0000   -0.0000   -0.0000    0.0000    0.0000    0.0000   -0.0000    0.0000    0.0000
       97 MO     6f1-      -0.0000   -0.0000    0.0000    0.0000   -0.0000   -0.0000   -0.0000    0.0000   -0.0000   -0.0000
       98 MO     7f1-       0.0000    0.0000   -0.0000   -0.0000    0.0000    0.0000    0.0000   -0.0000    0.0000   -0.0000
       99 MO     8f1-       0.0000   -0.0000   -0.0000   -0.0000    0.0000    0.0000    0.0000   -0.0000    0.0000    0.0000
      100 MO     9f1-       0.0000    0.0000    0.0000    0.0000   -0.0000   -0.0000   -0.0000    0.0000   -0.0000   -0.0000
      101 MO     4f0       -0.0000    0.0000    0.0000   -0.0000   -0.0000   -0.0000   -0.0000   -0.0000   -0.0000   -0.0000
      102 MO     5f0       -0.0000    0.0000    0.0000   -0.0000   -0.0000   -0.0000   -0.0000   -0.0000   -0.0000   -0.0000
      103 MO     6f0        0.0000   -0.0000   -0.0000    0.0000    0.0000    0.0000    0.0000    0.0000    0.0000    0.0000
      104 MO     7f0       -0.0000    0.0000    0.0000   -0.0000   -0.0000    0.0000   -0.0000   -0.0000   -0.0000   -0.0000
      105 MO     8f0        0.0000    0.0000    0.0000   -0.0000   -0.0000    0.0000   -0.0000   -0.0000   -0.0000   -0.0000
      106 MO     9f0       -0.0000    0.0000   -0.0000    0.0000    0.0000   -0.0000    0.0000    0.0000    0.0000    0.0000
      107 MO     4f1+      -0.0000    0.0000   -0.0000    0.0000   -0.0000   -0.0000   -0.0000   -0.0000    0.0000    0.0000
      108 MO     5f1+       0.0000    0.0000   -0.0000    0.0000   -0.0000   -0.0000   -0.0000   -0.0000    0.0000    0.0000
      109 MO     6f1+      -0.0000    0.0000    0.0000   -0.0000    0.0000    0.0000    0.0000    0.0000   -0.0000   -0.0000
      110 MO     7f1+       0.0000   -0.0000   -0.0000    0.0000   -0.0000   -0.0000   -0.0000   -0.0000    0.0000   -0.0000
      111 MO     8f1+       0.0000   -0.0000   -0.0000    0.0000   -0.0000   -0.0000   -0.0000   -0.0000    0.0000    0.0000
      112 MO     9f1+       0.0000    0.0000    0.0000   -0.0000    0.0000    0.0000    0.0000    0.0000   -0.0000   -0.0000
      113 MO     4f2+       0.0000   -0.0000   -0.0000    0.0000   -0.0000    0.0000    0.0000    0.0000    0.0000    0.0000
      114 MO     5f2+       0.0000   -0.0000    0.0000   -0.0000   -0.0000    0.0000    0.0000    0.0000    0.0000    0.0000
      115 MO     6f2+      -0.0000    0.0000   -0.0000    0.0000   -0.0000   -0.0000   -0.0000   -0.0000   -0.0000   -0.0000
      116 MO     7f2+       0.0000   -0.0000    0.0000   -0.0000    0.0000    0.0000   -0.0000   -0.0000    0.0000    0.0000
      117 MO     8f2+      -0.0000   -0.0000   -0.0000    0.0000   -0.0000    0.0000    0.0000    0.0000    0.0000    0.0000
      118 MO     9f2+       0.0000    0.0000   -0.0000    0.0000   -0.0000    0.0000    0.0000    0.0000   -0.0000   -0.0000
      119 MO     4f3+      -0.0000    0.0000   -0.0000   -0.0000   -0.0000   -0.0000    0.0000    0.0000    0.0000   -0.0000
      120 MO     5f3+      -0.0000    0.0000   -0.0000    0.0000    0.0000   -0.0000    0.0000    0.0000    0.0000   -0.0000
      121 MO     6f3+       0.0000   -0.0000    0.0000   -0.0000   -0.0000    0.0000   -0.0000   -0.0000   -0.0000    0.0000
      122 MO     7f3+      -0.0000    0.0000   -0.0000    0.0000    0.0000    0.0000    0.0000    0.0000   -0.0000   -0.0000
      123 MO     8f3+       0.0000    0.0000    0.0000   -0.0000   -0.0000    0.0000    0.0000    0.0000    0.0000   -0.0000
      124 MO     9f3+      -0.0000    0.0000   -0.0000   -0.0000   -0.0000   -0.0000   -0.0000   -0.0000    0.0000    0.0000
      125 MO     5g4-      -0.0000    0.0000    0.0000    0.0000   -0.0000    0.0000    0.0000   -0.0000    0.0000   -0.0000
      126 MO     6g4-       0.0000   -0.0000   -0.0000   -0.0000    0.0000   -0.0000   -0.0000    0.0000   -0.0000   -0.0000
      127 MO     7g4-      -0.0000    0.0000    0.0000    0.0000   -0.0000    0.0000    0.0000   -0.0000    0.0000    0.0000
      128 MO     8g4-       0.0000   -0.0000   -0.0000   -0.0000    0.0000   -0.0000    0.0000   -0.0000   -0.0000    0.0000
      129 MO     5g3-       0.0000    0.0000    0.0000    0.0000    0.0000    0.0000   -0.0000    0.0000    0.0000   -0.0000
      130 MO     6g3-      -0.0000   -0.0000   -0.0000   -0.0000   -0.0000   -0.0000    0.0000   -0.0000   -0.0000    0.0000
      131 MO     7g3-       0.0000    0.0000   -0.0000   -0.0000    0.0000    0.0000   -0.0000    0.0000    0.0000   -0.0000
      132 MO     8g3-      -0.0000   -0.0000    0.0000    0.0000    0.0000   -0.0000    0.0000   -0.0000   -0.0000    0.0000
      133 MO     5g2-      -0.0000   -0.0000    0.0000    0.0000   -0.0000   -0.0000    0.0000   -0.0000   -0.0000    0.0000
      134 MO     6g2-       0.0000    0.0000   -0.0000   -0.0000    0.0000    0.0000   -0.0000    0.0000    0.0000   -0.0000
      135 MO     7g2-      -0.0000   -0.0000    0.0000    0.0000   -0.0000   -0.0000    0.0000   -0.0000   -0.0000    0.0000
      136 MO     8g2-       0.0000    0.0000   -0.0000   -0.0000    0.0000    0.0000    0.0000   -0.0000    0.0000   -0.0000
      137 MO     5g1-       0.0000   -0.0000    0.0000    0.0000   -0.0000    0.0000    0.0000   -0.0000    0.0000   -0.0000
      138 MO     6g1-      -0.0000    0.0000   -0.0000   -0.0000    0.0000   -0.0000   -0.0000    0.0000   -0.0000    0.0000
      139 MO     7g1-       0.0000   -0.0000    0.0000    0.0000   -0.0000   -0.0000    0.0000   -0.0000    0.0000   -0.0000
      140 MO     8g1-      -0.0000    0.0000   -0.0000   -0.0000    0.0000    0.0000    0.0000   -0.0000   -0.0000    0.0000
      141 MO     5g0       -0.0000    0.0000   -0.0000    0.0000    0.0000   -0.0000   -0.0000   -0.0000   -0.0000    0.0000
      142 MO     6g0       -0.0000   -0.0000    0.0000    0.0000   -0.0000    0.0000    0.0000    0.0000    0.0000   -0.0000
      143 MO     7g0       -0.0000   -0.0000   -0.0000    0.0000    0.0000   -0.0000   -0.0000   -0.0000   -0.0000    0.0000
      144 MO     8g0        0.0000   -0.0000    0.0000    0.0000   -0.0000    0.0000    0.0000   -0.0000   -0.0000   -0.0000
      145 MO     5g1+      -0.0000    0.0000    0.0000   -0.0000    0.0000   -0.0000   -0.0000   -0.0000    0.0000   -0.0000
      146 MO     6g1+       0.0000    0.0000   -0.0000    0.0000   -0.0000    0.0000    0.0000    0.0000   -0.0000    0.0000
      147 MO     7g1+      -0.0000   -0.0000    0.0000   -0.0000    0.0000   -0.0000   -0.0000   -0.0000   -0.0000   -0.0000
      148 MO     8g1+       0.0000    0.0000   -0.0000    0.0000   -0.0000    0.0000   -0.0000   -0.0000    0.0000    0.0000
      149 MO     5g2+      -0.0000   -0.0000   -0.0000    0.0000   -0.0000   -0.0000    0.0000    0.0000   -0.0000   -0.0000
      150 MO     6g2+       0.0000    0.0000    0.0000   -0.0000    0.0000    0.0000   -0.0000   -0.0000    0.0000    0.0000
      151 MO     7g2+      -0.0000   -0.0000   -0.0000    0.0000   -0.0000   -0.0000    0.0000    0.0000   -0.0000   -0.0000
      152 MO     8g2+       0.0000    0.0000    0.0000   -0.0000    0.0000    0.0000    0.0000    0.0000   -0.0000    0.0000
      153 MO     5g3+       0.0000   -0.0000   -0.0000    0.0000    0.0000    0.0000   -0.0000   -0.0000   -0.0000    0.0000
      154 MO     6g3+      -0.0000    0.0000    0.0000   -0.0000   -0.0000   -0.0000    0.0000    0.0000    0.0000   -0.0000
      155 MO     7g3+       0.0000    0.0000   -0.0000    0.0000    0.0000    0.0000   -0.0000    0.0000   -0.0000    0.0000
      156 MO     8g3+      -0.0000    0.0000    0.0000   -0.0000   -0.0000   -0.0000   -0.0000   -0.0000   -0.0000   -0.0000
      157 MO     5g4+      -0.0000   -0.0000    0.0000   -0.0000    0.0000   -0.0000   -0.0000   -0.0000    0.0000   -0.0000
      158 MO     6g4+       0.0000    0.0000   -0.0000    0.0000   -0.0000    0.0000    0.0000    0.0000   -0.0000   -0.0000
      159 MO     7g4+      -0.0000   -0.0000    0.0000   -0.0000    0.0000   -0.0000   -0.0000   -0.0000    0.0000    0.0000
      160 MO     8g4+       0.0000    0.0000   -0.0000    0.0000   -0.0000    0.0000   -0.0000   -0.0000   -0.0000    0.0000
      161 MO     6h5-      -0.0000   -0.0000    0.0000    0.0000   -0.0000   -0.0000   -0.0000    0.0000   -0.0000    0.0000
      162 MO     7h5-       0.0000    0.0000   -0.0000   -0.0000    0.0000    0.0000    0.0000   -0.0000   -0.0000   -0.0000
      163 MO     6h4-       0.0000    0.0000   -0.0000   -0.0000    0.0000    0.0000   -0.0000    0.0000   -0.0000   -0.0000
      164 MO     7h4-      -0.0000   -0.0000   -0.0000   -0.0000   -0.0000   -0.0000    0.0000   -0.0000    0.0000    0.0000
      165 MO     6h3-      -0.0000   -0.0000   -0.0000    0.0000   -0.0000   -0.0000    0.0000   -0.0000    0.0000   -0.0000
      166 MO     7h3-       0.0000    0.0000    0.0000    0.0000    0.0000    0.0000   -0.0000    0.0000    0.0000    0.0000
      167 MO     6h2-      -0.0000    0.0000   -0.0000   -0.0000    0.0000   -0.0000   -0.0000    0.0000   -0.0000    0.0000
      168 MO     7h2-       0.0000   -0.0000   -0.0000   -0.0000   -0.0000   -0.0000    0.0000   -0.0000    0.0000   -0.0000
      169 MO     6h1-      -0.0000   -0.0000    0.0000    0.0000   -0.0000   -0.0000    0.0000   -0.0000   -0.0000   -0.0000
      170 MO     7h1-       0.0000    0.0000   -0.0000   -0.0000    0.0000    0.0000   -0.0000    0.0000   -0.0000    0.0000
      171 MO     6h0       -0.0000    0.0000   -0.0000   -0.0000    0.0000   -0.0000    0.0000   -0.0000   -0.0000    0.0000
      172 MO     7h0       -0.0000    0.0000    0.0000    0.0000    0.0000    0.0000   -0.0000    0.0000    0.0000   -0.0000
      173 MO     6h1+      -0.0000   -0.0000    0.0000   -0.0000   -0.0000   -0.0000   -0.0000   -0.0000   -0.0000   -0.0000
      174 MO     7h1+       0.0000    0.0000   -0.0000    0.0000    0.0000    0.0000    0.0000    0.0000    0.0000    0.0000
      175 MO     6h2+       0.0000   -0.0000    0.0000   -0.0000    0.0000   -0.0000   -0.0000   -0.0000   -0.0000   -0.0000
      176 MO     7h2+      -0.0000    0.0000    0.0000   -0.0000    0.0000    0.0000    0.0000    0.0000   -0.0000    0.0000
      177 MO     6h3+      -0.0000    0.0000    0.0000   -0.0000   -0.0000   -0.0000   -0.0000    0.0000    0.0000    0.0000
      178 MO     7h3+      -0.0000    0.0000   -0.0000    0.0000   -0.0000    0.0000    0.0000   -0.0000   -0.0000   -0.0000
      179 MO     6h4+      -0.0000   -0.0000   -0.0000    0.0000   -0.0000    0.0000    0.0000    0.0000   -0.0000   -0.0000
      180 MO     7h4+       0.0000   -0.0000   -0.0000    0.0000    0.0000   -0.0000   -0.0000   -0.0000    0.0000    0.0000
      181 MO     6h5+      -0.0000   -0.0000   -0.0000    0.0000   -0.0000   -0.0000   -0.0000   -0.0000   -0.0000   -0.0000
      182 MO     7h5+       0.0000    0.0000    0.0000   -0.0000    0.0000    0.0000    0.0000    0.0000   -0.0000    0.0000

          Orbital           11        12        13        14        15        16        17        18        19        20    
          Energy          -11.9860  -11.9859  -11.9859  -11.9859   -5.5258   -4.2843   -4.2843   -4.2840   -2.1130   -2.1130
          Occ. No.          2.0000    2.0000    2.0000    2.0000    2.0000    2.0000    2.0000    2.0000    0.0000    0.0000

        1 MO     1s        -0.0000    0.0000   -0.0000    0.0000   -0.0000    0.0000    0.0000   -0.0000   -0.0000   -0.0000
        2 MO     2s        -0.0000    0.0000   -0.0000    0.0000   -0.0000   -0.0000   -0.0000    0.0000   -0.0000   -0.0000
        3 MO     3s         0.0000    0.0000   -0.0000    0.0000    0.0015    0.0000    0.0000   -0.0000   -0.0000   -0.0000
        4 MO     4s         0.0000   -0.0000    0.0000   -0.0000    0.9978    0.0000    0.0000   -0.0012   -0.0000   -0.0000
        5 MO     5s         0.0000    0.0000   -0.0000    0.0000   -0.0388   -0.0000   -0.0000    0.0003    0.0000    0.0000
        6 MO     6s        -0.0000    0.0000    0.0000   -0.0000    0.0340    0.0000    0.0000   -0.0003   -0.0000    0.0000
        7 MO     7s        -0.0000    0.0000   -0.0000    0.0000   -0.0414   -0.0000   -0.0000    0.0004    0.0000    0.0000
        8 MO     8s        -0.0000    0.0000   -0.0000    0.0000   -0.0045    0.0000   -0.0000    0.0000    0.0000    0.0000
        9 MO     9s        -0.0000    0.0000    0.0000   -0.0000    0.0048    0.0000    0.0000   -0.0000   -0.0000   -0.0000
       10 MO    10s         0.0000   -0.0000   -0.0000    0.0000    0.0010    0.0000    0.0000   -0.0000   -0.0000   -0.0000
       11 MO     2px       -0.0000   -0.0000    0.0000   -0.0000   -0.0000   -0.0000   -0.0001    0.0000   -0.0000   -0.0000
       12 MO     3px        0.0000   -0.0000    0.0000    0.0000    0.0000    0.0001    0.0023   -0.0000   -0.0000   -0.0000
       13 MO     4px       -0.0000    0.0000   -0.0000   -0.0000   -0.0000    0.0255    0.9939   -0.0000   -0.0000   -0.0000
       14 MO     5px       -0.0000   -0.0000    0.0000    0.0000    0.0000   -0.0019   -0.0755    0.0000   -0.0001   -0.0000
       15 MO     6px        0.0000    0.0000   -0.0000   -0.0000    0.0000    0.0019    0.0749   -0.0000    0.0000    0.0000
       16 MO     7px       -0.0000   -0.0000    0.0000   -0.0000   -0.0000    0.0000    0.0002   -0.0000    0.0000    0.0000
       17 MO     8px        0.0000   -0.0000    0.0000    0.0000    0.0000   -0.0003   -0.0103    0.0000   -0.0000   -0.0000
       18 MO     9px       -0.0000    0.0000   -0.0000   -0.0000    0.0000   -0.0001   -0.0033    0.0000   -0.0000   -0.0000
       19 MO    10px        0.0000    0.0000   -0.0000    0.0000    0.0000   -0.0000   -0.0001    0.0000   -0.0000   -0.0000
       20 MO     2py        0.0000   -0.0000   -0.0000    0.0000    0.0000   -0.0001    0.0000    0.0000   -0.0000    0.0000
       21 MO     3py       -0.0000   -0.0000   -0.0000   -0.0000   -0.0000    0.0023   -0.0001   -0.0000   -0.0000    0.0000
       22 MO     4py        0.0000    0.0000    0.0000    0.0000   -0.0000    0.9939   -0.0255   -0.0000   -0.0000    0.0000
       23 MO     5py        0.0000   -0.0000   -0.0000   -0.0000    0.0000   -0.0755    0.0019    0.0000   -0.0000    0.0001
       24 MO     6py       -0.0000    0.0000    0.0000    0.0000   -0.0000    0.0749   -0.0019   -0.0000    0.0000   -0.0000
       25 MO     7py        0.0000   -0.0000   -0.0000   -0.0000    0.0000    0.0002   -0.0000    0.0000    0.0000   -0.0000
       26 MO     8py       -0.0000   -0.0000   -0.0000   -0.0000   -0.0000   -0.0103    0.0003    0.0000   -0.0000    0.0000
       27 MO     9py        0.0000    0.0000    0.0000    0.0000    0.0000   -0.0033    0.0001    0.0000   -0.0000    0.0000
       28 MO    10py       -0.0000    0.0000    0.0000   -0.0000   -0.0000   -0.0001    0.0000    0.0000   -0.0000    0.0000
       29 MO     2pz       -0.0000   -0.0000    0.0000   -0.0000    0.0000   -0.0000   -0.0000   -0.0001    0.0000   -0.0000
       30 MO     3pz        0.0000   -0.0000    0.0000   -0.0000   -0.0000    0.0000    0.0000    0.0023    0.0000    0.0000
       31 MO     4pz       -0.0000    0.0000   -0.0000    0.0000    0.0012    0.0000    0.0000    0.9943    0.0000    0.0000
       32 MO     5pz        0.0000   -0.0000    0.0000   -0.0000   -0.0000   -0.0000   -0.0000   -0.0756   -0.0000   -0.0000
       33 MO     6pz       -0.0000    0.0000   -0.0000    0.0000   -0.0000    0.0000    0.0000    0.0750    0.0000    0.0000
       34 MO     7pz       -0.0000   -0.0000    0.0000   -0.0000    0.0000    0.0000    0.0000    0.0002    0.0000   -0.0000
       35 MO     8pz       -0.0000    0.0000    0.0000   -0.0000   -0.0000   -0.0000   -0.0000   -0.0103   -0.0000   -0.0000
       36 MO     9pz        0.0000    0.0000    0.0000    0.0000   -0.0000   -0.0000   -0.0000   -0.0033   -0.0000   -0.0000
       37 MO    10pz        0.0000    0.0000   -0.0000    0.0000   -0.0000   -0.0000   -0.0000   -0.0001   -0.0000   -0.0000
       38 MO     3d2-       1.0000    0.0007    0.0049   -0.0000   -0.0000   -0.0000    0.0000    0.0000   -0.0000    0.0024
       39 MO     4d2-      -0.0021   -0.0000   -0.0000    0.0000    0.0000    0.0001   -0.0000    0.0000   -0.0176    0.9510
       40 MO     5d2-       0.0013    0.0000    0.0000   -0.0000    0.0000   -0.0000    0.0000   -0.0000    0.0056   -0.3026
       41 MO     6d2-      -0.0005   -0.0000   -0.0000    0.0000   -0.0000   -0.0000    0.0000    0.0000    0.0003   -0.0155
       42 MO     7d2-       0.0002    0.0000    0.0000   -0.0000    0.0000   -0.0000    0.0000   -0.0000   -0.0005    0.0276
       43 MO     8d2-      -0.0003   -0.0000   -0.0000    0.0000    0.0000   -0.0000    0.0000    0.0000   -0.0001    0.0039
       44 MO     9d2-       0.0003    0.0000    0.0000   -0.0000   -0.0000   -0.0000    0.0000    0.0000    0.0002   -0.0102
       45 MO    10d2-      -0.0004   -0.0000   -0.0000    0.0000    0.0000   -0.0000    0.0000    0.0000    0.0000   -0.0021
       46 MO    11d2-       0.0000    0.0000    0.0000   -0.0000   -0.0000   -0.0000    0.0000    0.0000   -0.0000    0.0002
       47 MO     3d1-      -0.0049    0.1516    0.9884    0.0000   -0.0000   -0.0000    0.0000   -0.0000    0.0000   -0.0001
       48 MO     4d1-       0.0000   -0.0003   -0.0021   -0.0000   -0.0000    0.0009   -0.0000   -0.0000    0.0009   -0.0486
       49 MO     5d1-      -0.0000    0.0002    0.0013    0.0000    0.0000   -0.0003    0.0000    0.0000   -0.0003    0.0155
       50 MO     6d1-       0.0000   -0.0001   -0.0005   -0.0000   -0.0000   -0.0001    0.0000    0.0000   -0.0000    0.0008
       51 MO     7d1-      -0.0000    0.0000    0.0002    0.0000    0.0000    0.0001   -0.0000   -0.0000    0.0000   -0.0014
       52 MO     8d1-       0.0000   -0.0000   -0.0003   -0.0000   -0.0000   -0.0000    0.0000   -0.0000    0.0000   -0.0002
       53 MO     9d1-      -0.0000    0.0000    0.0003    0.0000    0.0000   -0.0000    0.0000    0.0000   -0.0000    0.0005
       54 MO    10d1-       0.0000   -0.0001   -0.0004   -0.0000   -0.0000   -0.0000    0.0000   -0.0000   -0.0000    0.0001
       55 MO    11d1-      -0.0000    0.0000    0.0000    0.0000    0.0000    0.0000   -0.0000    0.0000    0.0000   -0.0000
       56 MO     3d0       -0.0000    0.0000   -0.0000    1.0000    0.0000   -0.0000   -0.0000   -0.0000   -0.0000   -0.0000
       57 MO     4d0        0.0000   -0.0000    0.0000   -0.0021   -0.0001    0.0000    0.0000    0.0009   -0.0000   -0.0000
       58 MO     5d0       -0.0000    0.0000   -0.0000    0.0013    0.0000   -0.0000   -0.0000   -0.0003    0.0000    0.0000
       59 MO     6d0        0.0000   -0.0000    0.0000   -0.0005    0.0000   -0.0000   -0.0000   -0.0001    0.0000    0.0000
       60 MO     7d0       -0.0000    0.0000   -0.0000    0.0002   -0.0000    0.0000    0.0000    0.0001   -0.0000   -0.0000
       61 MO     8d0        0.0000   -0.0000    0.0000   -0.0003    0.0000   -0.0000   -0.0000   -0.0000   -0.0000   -0.0000
       62 MO     9d0       -0.0000    0.0000   -0.0000    0.0003    0.0000   -0.0000   -0.0000   -0.0000    0.0000    0.0000
       63 MO    10d0        0.0000   -0.0000    0.0000   -0.0004    0.0000   -0.0000   -0.0000   -0.0000    0.0000    0.0000
       64 MO    11d0       -0.0000    0.0000   -0.0000    0.0000   -0.0000   -0.0000    0.0000    0.0000   -0.0000   -0.0000
       65 MO     3d1+       0.0000    0.9884   -0.1516   -0.0000   -0.0000   -0.0000   -0.0000    0.0000    0.0001    0.0000
       66 MO     4d1+      -0.0000   -0.0021    0.0003    0.0000    0.0000    0.0000    0.0009   -0.0000    0.0486    0.0009
       67 MO     5d1+       0.0000    0.0013   -0.0002   -0.0000   -0.0000   -0.0000   -0.0003    0.0000   -0.0155   -0.0003
       68 MO     6d1+      -0.0000   -0.0005    0.0001    0.0000   -0.0000   -0.0000   -0.0001    0.0000   -0.0008   -0.0000
       69 MO     7d1+       0.0000    0.0002   -0.0000   -0.0000    0.0000    0.0000    0.0001   -0.0000    0.0014    0.0000
       70 MO     8d1+      -0.0000   -0.0003    0.0000    0.0000   -0.0000   -0.0000   -0.0000    0.0000    0.0002    0.0000
       71 MO     9d1+       0.0000    0.0003   -0.0000   -0.0000   -0.0000   -0.0000   -0.0000    0.0000   -0.0005   -0.0000
       72 MO    10d1+      -0.0000   -0.0004    0.0001    0.0000   -0.0000   -0.0000   -0.0000    0.0000   -0.0001   -0.0000
       73 MO    11d1+       0.0000    0.0000   -0.0000   -0.0000    0.0000    0.0000    0.0000   -0.0000    0.0000    0.0000
       74 MO     3d2+       0.0042   -0.0049    0.0007    0.0000   -0.0000    0.0000    0.0000    0.0000    0.0024    0.0000
       75 MO     4d2+      -0.0000    0.0000   -0.0000   -0.0000    0.0000   -0.0000   -0.0001    0.0000    0.9510    0.0176
       76 MO     5d2+       0.0000   -0.0000    0.0000    0.0000   -0.0000    0.0000    0.0000   -0.0000   -0.3026   -0.0056
       77 MO     6d2+      -0.0000    0.0000   -0.0000   -0.0000   -0.0000    0.0000    0.0000   -0.0000   -0.0155   -0.0003
       78 MO     7d2+       0.0000   -0.0000    0.0000    0.0000    0.0000    0.0000    0.0000   -0.0000    0.0276    0.0005
       79 MO     8d2+      -0.0000    0.0000   -0.0000   -0.0000   -0.0000    0.0000    0.0000   -0.0000    0.0039    0.0001
       80 MO     9d2+       0.0000   -0.0000    0.0000    0.0000   -0.0000    0.0000    0.0000   -0.0000   -0.0102   -0.0002
       81 MO    10d2+      -0.0000    0.0000   -0.0000   -0.0000   -0.0000    0.0000    0.0000   -0.0000   -0.0021   -0.0000
       82 MO    11d2+       0.0000   -0.0000    0.0000    0.0000    0.0000    0.0000    0.0000   -0.0000    0.0002    0.0000
       83 MO     4f3-      -0.0000    0.0000   -0.0000   -0.0000   -0.0000    0.0000   -0.0000    0.0000    0.0000   -0.0000
       84 MO     5f3-      -0.0000    0.0000   -0.0000   -0.0000   -0.0000   -0.0000    0.0000   -0.0000   -0.0000    0.0000
       85 MO     6f3-       0.0000   -0.0000    0.0000    0.0000   -0.0000    0.0000   -0.0000   -0.0000    0.0000   -0.0000
       86 MO     7f3-      -0.0000    0.0000   -0.0000   -0.0000    0.0000    0.0000   -0.0000   -0.0000    0.0000   -0.0000
       87 MO     8f3-      -0.0000   -0.0000    0.0000   -0.0000    0.0000   -0.0000    0.0000    0.0000   -0.0000    0.0000
       88 MO     9f3-       0.0000   -0.0000    0.0000    0.0000   -0.0000   -0.0000    0.0000   -0.0000   -0.0000    0.0000
       89 MO     4f2-       0.0000    0.0000    0.0000    0.0000    0.0000   -0.0000    0.0000    0.0000   -0.0000    0.0015
       90 MO     5f2-       0.0000    0.0000    0.0000   -0.0000    0.0000    0.0000   -0.0000   -0.0000    0.0000   -0.0006
       91 MO     6f2-      -0.0000   -0.0000   -0.0000    0.0000    0.0000   -0.0000    0.0000    0.0000    0.0000   -0.0000
       92 MO     7f2-       0.0000   -0.0000   -0.0000   -0.0000    0.0000   -0.0000    0.0000    0.0000   -0.0000    0.0001
       93 MO     8f2-       0.0000    0.0000    0.0000   -0.0000    0.0000    0.0000   -0.0000   -0.0000    0.0000   -0.0000
       94 MO     9f2-      -0.0000    0.0000    0.0000    0.0000   -0.0000    0.0000   -0.0000    0.0000    0.0000   -0.0000
       95 MO     4f1-      -0.0000    0.0000    0.0000    0.0000   -0.0000   -0.0001    0.0000    0.0000    0.0000   -0.0001
       96 MO     5f1-      -0.0000    0.0000    0.0000    0.0000   -0.0000    0.0000   -0.0000   -0.0000   -0.0000    0.0001
       97 MO     6f1-       0.0000   -0.0000   -0.0000   -0.0000   -0.0000   -0.0000    0.0000    0.0000   -0.0000    0.0000
       98 MO     7f1-       0.0000    0.0000    0.0000    0.0000    0.0000   -0.0000    0.0000   -0.0000    0.0000   -0.0000
       99 MO     8f1-      -0.0000    0.0000    0.0000    0.0000    0.0000   -0.0000    0.0000   -0.0000   -0.0000    0.0000
      100 MO     9f1-       0.0000   -0.0000   -0.0000   -0.0000   -0.0000    0.0000   -0.0000    0.0000   -0.0000    0.0000
      101 MO     4f0       -0.0000    0.0000   -0.0000    0.0000   -0.0000   -0.0000   -0.0000   -0.0001   -0.0000    0.0000
      102 MO     5f0       -0.0000    0.0000   -0.0000    0.0000    0.0000    0.0000    0.0000    0.0000    0.0000   -0.0000
      103 MO     6f0        0.0000   -0.0000    0.0000   -0.0000   -0.0000   -0.0000   -0.0000   -0.0000    0.0000    0.0000
      104 MO     7f0        0.0000    0.0000   -0.0000    0.0000   -0.0000   -0.0000   -0.0000   -0.0000   -0.0000    0.0000
      105 MO     8f0        0.0000    0.0000   -0.0000    0.0000   -0.0000   -0.0000   -0.0000   -0.0000    0.0000   -0.0000
      106 MO     9f0        0.0000   -0.0000    0.0000   -0.0000   -0.0000    0.0000    0.0000    0.0000   -0.0000    0.0000
      107 MO     4f1+       0.0000    0.0000   -0.0000   -0.0000   -0.0000   -0.0000   -0.0001    0.0000    0.0001    0.0000
      108 MO     5f1+       0.0000    0.0000   -0.0000   -0.0000    0.0000    0.0000    0.0000   -0.0000   -0.0001   -0.0000
      109 MO     6f1+      -0.0000   -0.0000    0.0000    0.0000   -0.0000   -0.0000   -0.0000    0.0000   -0.0000   -0.0000
      110 MO     7f1+      -0.0000    0.0000   -0.0000   -0.0000   -0.0000   -0.0000   -0.0000    0.0000    0.0000    0.0000
      111 MO     8f1+       0.0000    0.0000   -0.0000   -0.0000   -0.0000   -0.0000   -0.0000    0.0000   -0.0000   -0.0000
      112 MO     9f1+      -0.0000   -0.0000    0.0000    0.0000   -0.0000    0.0000    0.0000   -0.0000   -0.0000   -0.0000
      113 MO     4f2+       0.0000   -0.0000    0.0000    0.0000    0.0000    0.0000    0.0000    0.0000    0.0015    0.0000
      114 MO     5f2+       0.0000   -0.0000    0.0000    0.0000   -0.0000   -0.0000   -0.0000    0.0000   -0.0006   -0.0000
      115 MO     6f2+      -0.0000    0.0000   -0.0000   -0.0000    0.0000    0.0000    0.0000    0.0000   -0.0000   -0.0000
      116 MO     7f2+       0.0000    0.0000   -0.0000    0.0000    0.0000    0.0000    0.0000   -0.0000    0.0001    0.0000
      117 MO     8f2+       0.0000   -0.0000    0.0000    0.0000    0.0000   -0.0000   -0.0000    0.0000   -0.0000   -0.0000
      118 MO     9f2+      -0.0000   -0.0000    0.0000   -0.0000    0.0000   -0.0000   -0.0000    0.0000   -0.0000   -0.0000
      119 MO     4f3+      -0.0000    0.0000   -0.0000    0.0000   -0.0000    0.0000    0.0000    0.0000   -0.0000   -0.0000
      120 MO     5f3+      -0.0000    0.0000   -0.0000    0.0000    0.0000   -0.0000   -0.0000   -0.0000    0.0000    0.0000
      121 MO     6f3+      -0.0000   -0.0000   -0.0000    0.0000   -0.0000    0.0000    0.0000    0.0000   -0.0000   -0.0000
      122 MO     7f3+       0.0000   -0.0000    0.0000   -0.0000   -0.0000    0.0000    0.0000    0.0000   -0.0000   -0.0000
      123 MO     8f3+       0.0000    0.0000   -0.0000    0.0000   -0.0000   -0.0000   -0.0000   -0.0000    0.0000    0.0000
      124 MO     9f3+      -0.0000    0.0000   -0.0000    0.0000   -0.0000   -0.0000   -0.0000   -0.0000    0.0000    0.0000
      125 MO     5g4-       0.0000    0.0000    0.0000    0.0000   -0.0000   -0.0000    0.0000    0.0000    0.0000   -0.0000
      126 MO     6g4-       0.0000   -0.0000   -0.0000   -0.0000    0.0000   -0.0000    0.0000    0.0000    0.0000   -0.0000
      127 MO     7g4-      -0.0000   -0.0000   -0.0000   -0.0000   -0.0000    0.0000   -0.0000   -0.0000   -0.0000    0.0000
      128 MO     8g4-      -0.0000   -0.0000   -0.0000    0.0000    0.0000    0.0000   -0.0000    0.0000   -0.0000    0.0000
      129 MO     5g3-       0.0000    0.0000    0.0000   -0.0000   -0.0000    0.0000   -0.0000    0.0000   -0.0000    0.0000
      130 MO     6g3-      -0.0000   -0.0000   -0.0000    0.0000    0.0000    0.0000   -0.0000   -0.0000   -0.0000    0.0000
      131 MO     7g3-       0.0000    0.0000    0.0000   -0.0000   -0.0000   -0.0000    0.0000    0.0000   -0.0000    0.0000
      132 MO     8g3-      -0.0000   -0.0000   -0.0000   -0.0000    0.0000   -0.0000    0.0000    0.0000   -0.0000    0.0000
      133 MO     5g2-      -0.0000   -0.0000   -0.0000   -0.0000   -0.0000   -0.0000    0.0000   -0.0000    0.0000   -0.0001
      134 MO     6g2-       0.0000    0.0000    0.0000   -0.0000    0.0000   -0.0000    0.0000    0.0000    0.0000   -0.0001
      135 MO     7g2-      -0.0000   -0.0000   -0.0000    0.0000   -0.0000    0.0000   -0.0000   -0.0000    0.0000   -0.0000
      136 MO     8g2-       0.0000    0.0000    0.0000   -0.0000    0.0000    0.0000   -0.0000    0.0000    0.0000   -0.0000
      137 MO     5g1-       0.0000   -0.0000   -0.0000   -0.0000   -0.0000   -0.0000    0.0000    0.0000   -0.0000    0.0000
      138 MO     6g1-      -0.0000    0.0000    0.0000    0.0000    0.0000   -0.0000    0.0000    0.0000   -0.0000    0.0000
      139 MO     7g1-       0.0000   -0.0000   -0.0000   -0.0000   -0.0000    0.0000   -0.0000    0.0000   -0.0000    0.0000
      140 MO     8g1-      -0.0000    0.0000    0.0000    0.0000    0.0000    0.0000   -0.0000   -0.0000   -0.0000    0.0000
      141 MO     5g0       -0.0000   -0.0000    0.0000   -0.0000   -0.0000   -0.0000   -0.0000   -0.0000    0.0000    0.0000
      142 MO     6g0        0.0000    0.0000   -0.0000    0.0000   -0.0000   -0.0000   -0.0000   -0.0000    0.0000    0.0000
      143 MO     7g0        0.0000   -0.0000    0.0000   -0.0000    0.0000    0.0000    0.0000    0.0000    0.0000   -0.0000
      144 MO     8g0        0.0000    0.0000   -0.0000    0.0000    0.0000   -0.0000    0.0000    0.0000    0.0000   -0.0000
      145 MO     5g1+      -0.0000   -0.0000    0.0000    0.0000   -0.0000   -0.0000   -0.0000    0.0000   -0.0000   -0.0000
      146 MO     6g1+       0.0000    0.0000   -0.0000   -0.0000   -0.0000   -0.0000   -0.0000    0.0000   -0.0000   -0.0000
      147 MO     7g1+      -0.0000   -0.0000    0.0000    0.0000    0.0000    0.0000    0.0000   -0.0000   -0.0000   -0.0000
      148 MO     8g1+       0.0000    0.0000   -0.0000   -0.0000    0.0000    0.0000    0.0000   -0.0000   -0.0000   -0.0000
      149 MO     5g2+      -0.0000    0.0000   -0.0000   -0.0000   -0.0000    0.0000    0.0000    0.0000   -0.0001   -0.0000
      150 MO     6g2+       0.0000   -0.0000    0.0000    0.0000   -0.0000    0.0000    0.0000    0.0000   -0.0001   -0.0000
      151 MO     7g2+      -0.0000    0.0000   -0.0000   -0.0000    0.0000   -0.0000   -0.0000    0.0000   -0.0000   -0.0000
      152 MO     8g2+       0.0000   -0.0000    0.0000    0.0000    0.0000   -0.0000   -0.0000    0.0000   -0.0000   -0.0000
      153 MO     5g3+       0.0000    0.0000   -0.0000   -0.0000    0.0000   -0.0000   -0.0000   -0.0000    0.0000    0.0000
      154 MO     6g3+      -0.0000   -0.0000    0.0000    0.0000    0.0000   -0.0000   -0.0000   -0.0000    0.0000    0.0000
      155 MO     7g3+       0.0000    0.0000   -0.0000    0.0000   -0.0000    0.0000    0.0000    0.0000    0.0000    0.0000
      156 MO     8g3+      -0.0000   -0.0000    0.0000    0.0000   -0.0000    0.0000    0.0000    0.0000    0.0000    0.0000
      157 MO     5g4+      -0.0000    0.0000   -0.0000   -0.0000   -0.0000   -0.0000   -0.0000    0.0000    0.0000    0.0000
      158 MO     6g4+      -0.0000   -0.0000    0.0000   -0.0000   -0.0000   -0.0000   -0.0000    0.0000    0.0000    0.0000
      159 MO     7g4+       0.0000   -0.0000    0.0000    0.0000    0.0000    0.0000    0.0000   -0.0000   -0.0000   -0.0000
      160 MO     8g4+       0.0000   -0.0000    0.0000    0.0000    0.0000    0.0000    0.0000   -0.0000   -0.0000   -0.0000
      161 MO     6h5-      -0.0000   -0.0000   -0.0000    0.0000   -0.0000    0.0000   -0.0000    0.0000    0.0000   -0.0000
      162 MO     7h5-       0.0000    0.0000    0.0000   -0.0000    0.0000    0.0000   -0.0000   -0.0000    0.0000   -0.0000
      163 MO     6h4-       0.0000   -0.0000   -0.0000   -0.0000    0.0000    0.0000   -0.0000   -0.0000   -0.0000    0.0000
      164 MO     7h4-      -0.0000    0.0000    0.0000    0.0000   -0.0000    0.0000   -0.0000   -0.0000   -0.0000    0.0000
      165 MO     6h3-      -0.0000    0.0000    0.0000    0.0000    0.0000   -0.0000    0.0000    0.0000    0.0000   -0.0000
      166 MO     7h3-      -0.0000   -0.0000   -0.0000   -0.0000    0.0000   -0.0000    0.0000   -0.0000    0.0000   -0.0000
      167 MO     6h2-      -0.0000   -0.0000   -0.0000   -0.0000   -0.0000    0.0000   -0.0000   -0.0000    0.0000   -0.0000
      168 MO     7h2-       0.0000    0.0000    0.0000    0.0000    0.0000    0.0000   -0.0000   -0.0000    0.0000   -0.0000
      169 MO     6h1-       0.0000   -0.0000   -0.0000   -0.0000   -0.0000   -0.0000    0.0000    0.0000   -0.0000    0.0000
      170 MO     7h1-      -0.0000    0.0000    0.0000    0.0000    0.0000   -0.0000    0.0000   -0.0000   -0.0000    0.0000
      171 MO     6h0        0.0000   -0.0000    0.0000   -0.0000   -0.0000    0.0000    0.0000   -0.0000    0.0000    0.0000
      172 MO     7h0       -0.0000    0.0000   -0.0000    0.0000   -0.0000   -0.0000   -0.0000   -0.0000    0.0000    0.0000
      173 MO     6h1+      -0.0000   -0.0000    0.0000    0.0000    0.0000   -0.0000   -0.0000   -0.0000   -0.0000   -0.0000
      174 MO     7h1+       0.0000    0.0000   -0.0000   -0.0000    0.0000   -0.0000   -0.0000   -0.0000   -0.0000   -0.0000
      175 MO     6h2+      -0.0000    0.0000   -0.0000   -0.0000    0.0000   -0.0000   -0.0000    0.0000   -0.0000   -0.0000
      176 MO     7h2+       0.0000   -0.0000    0.0000    0.0000    0.0000   -0.0000   -0.0000    0.0000   -0.0000   -0.0000
      177 MO     6h3+      -0.0000   -0.0000    0.0000   -0.0000   -0.0000   -0.0000    0.0000    0.0000   -0.0000   -0.0000
      178 MO     7h3+      -0.0000    0.0000    0.0000    0.0000   -0.0000    0.0000    0.0000    0.0000   -0.0000   -0.0000
      179 MO     6h4+      -0.0000   -0.0000    0.0000    0.0000    0.0000    0.0000    0.0000   -0.0000   -0.0000   -0.0000
      180 MO     7h4+       0.0000    0.0000   -0.0000   -0.0000    0.0000    0.0000    0.0000   -0.0000   -0.0000   -0.0000
      181 MO     6h5+      -0.0000    0.0000   -0.0000   -0.0000    0.0000   -0.0000   -0.0000    0.0000   -0.0000   -0.0000
      182 MO     7h5+       0.0000   -0.0000    0.0000    0.0000    0.0000   -0.0000   -0.0000   -0.0000   -0.0000   -0.0000

          Orbital           21        22        23    
          Energy           -2.1126   -2.1126   -2.1125
          Occ. No.          0.0000    0.0000    0.0000

        1 MO     1s         0.0000    0.0000   -0.0000
        2 MO     2s        -0.0000    0.0000   -0.0000
        3 MO     3s        -0.0000   -0.0000    0.0000
        4 MO     4s         0.0000   -0.0000    0.0000
        5 MO     5s         0.0000    0.0000   -0.0008
        6 MO     6s        -0.0000   -0.0000    0.0005
        7 MO     7s         0.0000    0.0000   -0.0003
        8 MO     8s         0.0000    0.0000   -0.0002
        9 MO     9s        -0.0000    0.0000   -0.0000
       10 MO    10s        -0.0000   -0.0000    0.0000
       11 MO     2px       -0.0000    0.0000   -0.0000
       12 MO     3px        0.0000   -0.0000    0.0000
       13 MO     4px        0.0000   -0.0007    0.0000
       14 MO     5px       -0.0000    0.0018   -0.0000
       15 MO     6px        0.0000   -0.0012    0.0000
       16 MO     7px        0.0000   -0.0003    0.0000
       17 MO     8px       -0.0000    0.0002   -0.0000
       18 MO     9px       -0.0000    0.0001   -0.0000
       19 MO    10px       -0.0000    0.0000   -0.0000
       20 MO     2py        0.0000    0.0000    0.0000
       21 MO     3py       -0.0000   -0.0000   -0.0000
       22 MO     4py       -0.0007   -0.0000    0.0000
       23 MO     5py        0.0018    0.0000   -0.0000
       24 MO     6py       -0.0012   -0.0000    0.0000
       25 MO     7py       -0.0003   -0.0000   -0.0000
       26 MO     8py        0.0002    0.0000   -0.0000
       27 MO     9py        0.0001    0.0000   -0.0000
       28 MO    10py        0.0000    0.0000    0.0000
       29 MO     2pz        0.0000    0.0000    0.0000
       30 MO     3pz        0.0000   -0.0000   -0.0000
       31 MO     4pz        0.0000   -0.0000   -0.0007
       32 MO     5pz       -0.0000   -0.0000    0.0014
       33 MO     6pz        0.0000   -0.0000   -0.0011
       34 MO     7pz        0.0000    0.0000   -0.0002
       35 MO     8pz       -0.0000    0.0000    0.0002
       36 MO     9pz       -0.0000    0.0000    0.0001
       37 MO    10pz       -0.0000    0.0000    0.0000
       38 MO     3d2-       0.0001    0.0000   -0.0000
       39 MO     4d2-       0.0486    0.0004   -0.0000
       40 MO     5d2-      -0.0155   -0.0001    0.0000
       41 MO     6d2-      -0.0008   -0.0000    0.0000
       42 MO     7d2-       0.0014    0.0000   -0.0000
       43 MO     8d2-       0.0002    0.0000   -0.0000
       44 MO     9d2-      -0.0005   -0.0000    0.0000
       45 MO    10d2-      -0.0001   -0.0000    0.0000
       46 MO    11d2-       0.0000    0.0000   -0.0000
       47 MO     3d1-       0.0024    0.0000    0.0000
       48 MO     4d1-       0.9510    0.0077    0.0000
       49 MO     5d1-      -0.3029   -0.0024   -0.0000
       50 MO     6d1-      -0.0154   -0.0001   -0.0000
       51 MO     7d1-       0.0277    0.0002    0.0000
       52 MO     8d1-       0.0039    0.0000    0.0000
       53 MO     9d1-      -0.0103   -0.0001   -0.0000
       54 MO    10d1-      -0.0021   -0.0000   -0.0000
       55 MO    11d1-       0.0002    0.0000    0.0000
       56 MO     3d0       -0.0000    0.0000    0.0024
       57 MO     4d0       -0.0000    0.0000    0.9523
       58 MO     5d0        0.0000   -0.0000   -0.3034
       59 MO     6d0        0.0000   -0.0000   -0.0154
       60 MO     7d0       -0.0000    0.0000    0.0277
       61 MO     8d0       -0.0000    0.0000    0.0039
       62 MO     9d0        0.0000   -0.0000   -0.0103
       63 MO    10d0        0.0000   -0.0000   -0.0021
       64 MO    11d0       -0.0000    0.0000    0.0002
       65 MO     3d1+      -0.0000    0.0024   -0.0000
       66 MO     4d1+      -0.0077    0.9510   -0.0000
       67 MO     5d1+       0.0024   -0.3029    0.0000
       68 MO     6d1+       0.0001   -0.0154    0.0000
       69 MO     7d1+      -0.0002    0.0277   -0.0000
       70 MO     8d1+      -0.0000    0.0039   -0.0000
       71 MO     9d1+       0.0001   -0.0103    0.0000
       72 MO    10d1+       0.0000   -0.0021    0.0000
       73 MO    11d1+      -0.0000    0.0002   -0.0000
       74 MO     3d2+       0.0000   -0.0001    0.0000
       75 MO     4d2+       0.0004   -0.0486    0.0000
       76 MO     5d2+      -0.0001    0.0155   -0.0000
       77 MO     6d2+      -0.0000    0.0008   -0.0000
       78 MO     7d2+       0.0000   -0.0014    0.0000
       79 MO     8d2+       0.0000   -0.0002    0.0000
       80 MO     9d2+      -0.0000    0.0005   -0.0000
       81 MO    10d2+      -0.0000    0.0001   -0.0000
       82 MO    11d2+       0.0000   -0.0000    0.0000
       83 MO     4f3-      -0.0000   -0.0000   -0.0000
       84 MO     5f3-       0.0000    0.0000    0.0000
       85 MO     6f3-      -0.0000    0.0000   -0.0000
       86 MO     7f3-      -0.0000   -0.0000   -0.0000
       87 MO     8f3-      -0.0000    0.0000   -0.0000
       88 MO     9f3-       0.0000    0.0000    0.0000
       89 MO     4f2-       0.0002    0.0000   -0.0000
       90 MO     5f2-      -0.0001   -0.0000    0.0000
       91 MO     6f2-      -0.0000   -0.0000   -0.0000
       92 MO     7f2-       0.0000    0.0000   -0.0000
       93 MO     8f2-      -0.0000   -0.0000   -0.0000
       94 MO     9f2-      -0.0000   -0.0000   -0.0000
       95 MO     4f1-       0.0016    0.0000    0.0000
       96 MO     5f1-      -0.0005   -0.0000   -0.0000
       97 MO     6f1-       0.0000    0.0000   -0.0000
       98 MO     7f1-       0.0001    0.0000    0.0000
       99 MO     8f1-      -0.0000   -0.0000   -0.0000
      100 MO     9f1-      -0.0000   -0.0000    0.0000
      101 MO     4f0       -0.0000    0.0000    0.0016
      102 MO     5f0        0.0000   -0.0000   -0.0005
      103 MO     6f0       -0.0000    0.0000    0.0001
      104 MO     7f0       -0.0000    0.0000    0.0001
      105 MO     8f0        0.0000   -0.0000   -0.0000
      106 MO     9f0        0.0000   -0.0000   -0.0000
      107 MO     4f1+      -0.0000    0.0016   -0.0000
      108 MO     5f1+       0.0000   -0.0005    0.0000
      109 MO     6f1+      -0.0000    0.0000   -0.0000
      110 MO     7f1+      -0.0000    0.0001   -0.0000
      111 MO     8f1+       0.0000   -0.0000    0.0000
      112 MO     9f1+       0.0000   -0.0000    0.0000
      113 MO     4f2+       0.0000   -0.0002    0.0000
      114 MO     5f2+      -0.0000    0.0001   -0.0000
      115 MO     6f2+      -0.0000    0.0000   -0.0000
      116 MO     7f2+       0.0000   -0.0000    0.0000
      117 MO     8f2+      -0.0000    0.0000   -0.0000
      118 MO     9f2+      -0.0000    0.0000   -0.0000
      119 MO     4f3+      -0.0000    0.0000    0.0001
      120 MO     5f3+       0.0000   -0.0000   -0.0001
      121 MO     6f3+       0.0000   -0.0000   -0.0000
      122 MO     7f3+      -0.0000    0.0000    0.0000
      123 MO     8f3+       0.0000   -0.0000   -0.0000
      124 MO     9f3+       0.0000   -0.0000   -0.0000
      125 MO     5g4-       0.0000    0.0000    0.0000
      126 MO     6g4-       0.0000    0.0000    0.0000
      127 MO     7g4-       0.0000    0.0000    0.0000
      128 MO     8g4-       0.0000    0.0000    0.0000
      129 MO     5g3-       0.0000    0.0000   -0.0000
      130 MO     6g3-       0.0000    0.0000    0.0000
      131 MO     7g3-       0.0000    0.0000   -0.0000
      132 MO     8g3-       0.0000    0.0000   -0.0000
      133 MO     5g2-      -0.0000   -0.0000    0.0000
      134 MO     6g2-      -0.0000   -0.0000    0.0000
      135 MO     7g2-      -0.0000   -0.0000    0.0000
      136 MO     8g2-      -0.0000   -0.0000   -0.0000
      137 MO     5g1-      -0.0002   -0.0000   -0.0000
      138 MO     6g1-      -0.0001   -0.0000   -0.0000
      139 MO     7g1-      -0.0000   -0.0000   -0.0000
      140 MO     8g1-      -0.0000   -0.0000   -0.0000
      141 MO     5g0        0.0000   -0.0000   -0.0002
      142 MO     6g0        0.0000   -0.0000   -0.0002
      143 MO     7g0        0.0000   -0.0000   -0.0001
      144 MO     8g0        0.0000   -0.0000   -0.0000
      145 MO     5g1+       0.0000   -0.0002    0.0000
      146 MO     6g1+       0.0000   -0.0001    0.0000
      147 MO     7g1+       0.0000   -0.0000    0.0000
      148 MO     8g1+       0.0000   -0.0000    0.0000
      149 MO     5g2+      -0.0000    0.0000   -0.0000
      150 MO     6g2+      -0.0000    0.0000   -0.0000
      151 MO     7g2+      -0.0000    0.0000   -0.0000
      152 MO     8g2+      -0.0000    0.0000   -0.0000
      153 MO     5g3+       0.0000   -0.0000   -0.0000
      154 MO     6g3+       0.0000   -0.0000   -0.0000
      155 MO     7g3+       0.0000   -0.0000   -0.0000
      156 MO     8g3+       0.0000   -0.0000   -0.0000
      157 MO     5g4+      -0.0000    0.0000   -0.0000
      158 MO     6g4+      -0.0000    0.0000   -0.0000
      159 MO     7g4+      -0.0000    0.0000   -0.0000
      160 MO     8g4+      -0.0000    0.0000   -0.0000
      161 MO     6h5-      -0.0000   -0.0000   -0.0000
      162 MO     7h5-      -0.0000   -0.0000    0.0000
      163 MO     6h4-      -0.0000   -0.0000   -0.0000
      164 MO     7h4-      -0.0000   -0.0000   -0.0000
      165 MO     6h3-       0.0000    0.0000   -0.0000
      166 MO     7h3-       0.0000    0.0000    0.0000
      167 MO     6h2-      -0.0000   -0.0000    0.0000
      168 MO     7h2-      -0.0000   -0.0000    0.0000
      169 MO     6h1-      -0.0000   -0.0000   -0.0000
      170 MO     7h1-      -0.0000   -0.0000    0.0000
      171 MO     6h0        0.0000   -0.0000   -0.0001
      172 MO     7h0        0.0000   -0.0000   -0.0001
      173 MO     6h1+       0.0000   -0.0000    0.0000
      174 MO     7h1+       0.0000   -0.0000    0.0000
      175 MO     6h2+      -0.0000    0.0000   -0.0000
      176 MO     7h2+      -0.0000    0.0000   -0.0000
      177 MO     6h3+       0.0000   -0.0000   -0.0000
      178 MO     7h3+       0.0000   -0.0000   -0.0000
      179 MO     6h4+       0.0000   -0.0000    0.0000
      180 MO     7h4+       0.0000   -0.0000    0.0000
      181 MO     6h5+      -0.0000    0.0000   -0.0000
      182 MO     7h5+      -0.0000    0.0000   -0.0000
--


++    Molecular charges:
      ------------------

      Mulliken charges per centre and basis function type
      ---------------------------------------------------

                MO    
      1s       2.0000
      2s       2.0000
      2px      2.0000
      2pz      2.0000
      2py      2.0000
      3s       2.0000
      3px      2.0000
      3pz      2.0000
      3py      2.0000
      4s       1.9912
      3d2+     2.0000
      3d1+     2.0000
      3d0      2.0000
      3d1-     2.0000
      3d2-     2.0000
      4px      1.9771
      4pz      1.9771
      4py      1.9771
      5s       0.0030
      4d2+     0.0000
      4d1+     0.0000
      4d0      0.0000
      4d1-     0.0000
      4d2-     0.0000
      5px      0.0114
      5pz      0.0114
      5py      0.0114
      6s       0.0023
      4f3+     0.0000
      4f2+     0.0000
      4f1+     0.0000
      4f0      0.0000
      4f1-     0.0000
      4f2-     0.0000
      4f3-     0.0000
      5d2+     0.0000
      5d1+     0.0000
      5d0      0.0000
      5d1-     0.0000
      5d2-     0.0000
      6px      0.0112
      6pz      0.0113
      6py      0.0112
      7s       0.0034
      5f3+     0.0000
      5f2+     0.0000
      5f1+     0.0000
      5f0      0.0000
      5f1-     0.0000
      5f2-     0.0000
      5f3-     0.0000
      6d2+     0.0000
      6d1+     0.0000
      6d0      0.0000
      6d1-     0.0000
      6d2-     0.0000
      7px      0.0000
      7pz      0.0000
      7py      0.0000
      5g4+     0.0000
      5g3+     0.0000
      5g2+     0.0000
      5g1+     0.0000
      5g0      0.0000
      5g1-     0.0000
      5g2-     0.0000
      5g3-     0.0000
      5g4-     0.0000
      6f3+     0.0000
      6f2+     0.0000
      6f1+     0.0000
      6f0      0.0000
      6f1-     0.0000
      6f2-     0.0000
      6f3-     0.0000
      6g4+     0.0000
      6g3+     0.0000
      6g2+     0.0000
      6g1+     0.0000
      6g0      0.0000
      6g1-     0.0000
      6g2-     0.0000
      6g3-     0.0000
      6g4-     0.0000
      6h5+     0.0000
      6h4+     0.0000
      6h3+     0.0000
      6h2+     0.0000
      6h1+     0.0000
      6h0      0.0000
      6h1-     0.0000
      6h2-     0.0000
      6h3-     0.0000
      6h4-     0.0000
      6h5-     0.0000
      7d2+     0.0000
      7d1+     0.0000
      7d0      0.0000
      7d1-     0.0000
      7d2-     0.0000
      7f3+     0.0000
      7f2+     0.0000
      7f1+     0.0000
      7f0      0.0000
      7f1-     0.0000
      7f2-     0.0000
      7f3-     0.0000
      7g4+     0.0000
      7g3+     0.0000
      7g2+     0.0000
      7g1+     0.0000
      7g0      0.0000
      7g1-     0.0000
      7g2-     0.0000
      7g3-     0.0000
      7g4-     0.0000
      7h5+     0.0000
      7h4+     0.0000
      7h3+     0.0000
      7h2+     0.0000
      7h1+     0.0000
      7h0      0.0000
      7h1-     0.0000
      7h2-     0.0000
      7h3-     0.0000
      7h4-     0.0000
      7h5-     0.0000
      8s       0.0000
      8px      0.0002
      8pz      0.0002
      8py      0.0002
      8d2+     0.0000
      8d1+     0.0000
      8d0      0.0000
      8d1-     0.0000
      8d2-     0.0000
      8f3+     0.0000
      8f2+     0.0000
      8f1+     0.0000
      8f0      0.0000
      8f1-     0.0000
      8f2-     0.0000
      8f3-     0.0000
      8g4+     0.0000
      8g3+     0.0000
      8g2+     0.0000
      8g1+     0.0000
      8g0      0.0000
      8g1-     0.0000
      8g2-     0.0000
      8g3-     0.0000
      8g4-     0.0000
      9s       0.0000
      9px      0.0000
      9pz      0.0000
      9py      0.0000
      9d2+     0.0000
      9d1+     0.0000
      9d0      0.0000
      9d1-     0.0000
      9d2-     0.0000
      9f3+     0.0000
      9f2+     0.0000
      9f1+     0.0000
      9f0      0.0000
      9f1-     0.0000
      9f2-     0.0000
      9f3-     0.0000
     10s       0.0000
     10px      0.0000
     10pz      0.0000
     10py      0.0000
     10d2+     0.0000
     10d1+     0.0000
     10d0      0.0000
     10d1-     0.0000
     10d2-     0.0000
     11d2+     0.0000
     11d1+     0.0000
     11d0      0.0000
     11d1-     0.0000
     11d2-     0.0000
      Total   36.0000

      N-E      6.0000

      Total electronic charge=   36.000000

      Total            charge=    6.000000
--

 Sorry, Molden does not know how to handle
 functions with angular momentum larger than g

++    Static properties:
      ------------------


      LoProp Charges per center


                   MO    
      Nuclear     42.0000
      Electronic -36.0000

      Total        6.0000
--


++    Molecular properties:
      ---------------------

      Charge (e):
                      =    6.0000
      Dipole Moment (Debye):
      Origin of the operator (Ang)=    0.0000    0.0000    0.0000
                   X=  4.1681E-10               Y= -5.4530E-13               Z= -1.7683E-02           Total=  1.7683E-02
      Center of Charge (Ang)
                     X=    0.00000000               Y=   -0.00000000               Z=   -0.00061359
      Quadrupole Moment (Debye*Ang):
      Origin of the operator (Ang)=    0.0000    0.0000    0.0000
                  XX= -7.0102E+00              XY= -2.5318E-14              XZ= -2.2247E-11              YY= -7.0102E+00
                  YZ= -2.3422E-14              ZZ= -7.0087E+00
      In traceless form (Debye*Ang)
                  XX= -7.1639E-04              XY= -3.7977E-14              XZ= -3.3370E-11              YY= -7.1639E-04
                  YZ= -3.5133E-14              ZZ=  1.4328E-03
--

 Sorry, Molden does not know how to handle
 functions with angular momentum larger than g
 ###############################################################################
 ###############################################################################
 ###                                                                         ###
 ###                                                                         ###
 ###    WARNING: RunFile label nBas                                          ###
 ###    was used       62 times                                              ###
 ###                                                                         ###
 ###                                                                         ###
 ###############################################################################
 ###############################################################################
Note: The following floating-point exceptions are signalling: IEEE_UNDERFLOW_FLAG IEEE_DENORMAL
--- Stop Module: scf at Thu Dec 26 11:54:57 2024 /rc=_RC_ALL_IS_WELL_ ---
*** files: molybdenum_so_cf.LprOrb molybdenum_so_cf.ScfOrb xmldump
    saved to directory /home4/s4752295/Internship/Initial_simulations/Point_charge_model/1_electron/active_space_9_non_rel/Mo/varying_bond_length
--- Module scf spent 7 seconds ---

*** symbolic link created: INPORB -> molybdenum_so_cf.ScfOrb
--- Start Module: rasscf at Thu Dec 26 11:54:57 2024 ---

()()()()()()()()()()()()()()()()()()()()()()()()()()()()()()()()()()()()()()()()()()()()()()()()()()

                                              &RASSCF

                                   only a single process is used
                       available to each process: 4.1 GB of memory, 1 thread?
                                            pid: 1521413
()()()()()()()()()()()()()()()()()()()()()()()()()()()()()()()()()()()()()()()()()()()()()()()()()()


      Header of the ONEINT file:
      --------------------------
      
      Integrals generated by seward 4.2.0  , Thu Dec 26 11:54:41 2024


      OrdInt status: non-squared


      Cartesian coordinates in Angstrom:
      -----------------------------------------------------
      No.  Label        X            Y            Z        
      -----------------------------------------------------
       1   MO         0.00000000   0.00000000   0.00000000
      -----------------------------------------------------
      Nuclear repulsion energy =  -14.81481485

++    Wave function specifications:
      -----------------------------

      Number of closed shell electrons          36
      Number of electrons in active shells       1
      Max number of holes in RAS1 space          0
      Max nr of electrons in RAS3 space          0
      Number of inactive orbitals               18
      Number of active orbitals                  9
      Number of secondary orbitals             155
      Spin quantum number                      0.5
      State symmetry                             1
--

++    Orbital specifications:
      -----------------------

      Symmetry species                           1
[...]
    9         0.000561       5 0.5  1.0000    9 0.5  0.0000    8 0.5  0.0000    7 0.5  0.0000    6 0.5  0.0000
   10         0.000561       5 0.5  1.0000    9 0.5  0.0000    8 0.5  0.0000    7 0.5  0.0000    6 0.5  0.0000
   11         0.539440       6 0.5  1.0000    9 0.5  0.0000    8 0.5  0.0000    7 0.5  0.0000    5 0.5  0.0000
   12         0.539440       6 0.5  1.0000    9 0.5  0.0000    8 0.5  0.0000    7 0.5  0.0000    5 0.5  0.0000
   13         0.832253       8 0.5  1.0000    9 0.5  0.0000    7 0.5  0.0000    6 0.5  0.0000    5 0.5  0.0000
   14         0.832253       8 0.5  1.0000    9 0.5  0.0000    7 0.5  0.0000    6 0.5  0.0000    5 0.5  0.0000
   15         0.832253       7 0.5  1.0000    9 0.5  0.0000    8 0.5  0.0000    6 0.5  0.0000    5 0.5  0.0000
   16         0.832253       7 0.5  1.0000    9 0.5  0.0000    8 0.5  0.0000    6 0.5  0.0000    5 0.5  0.0000
   17         0.834341       9 0.5  1.0000    8 0.5  0.0000    7 0.5  0.0000    6 0.5  0.0000    5 0.5  0.0000
   18         0.834341       9 0.5  1.0000    8 0.5  0.0000    7 0.5  0.0000    6 0.5  0.0000    5 0.5  0.0000
 -------------------------------------------------------------------------------------------------------


      ****************************************************************************************************
      *                                                                                                  *
      *                                    Special properties section                                    *
      *                                                                                                  *
      ****************************************************************************************************


++ Dipole transition strengths (SO states):
   ----------------------------------------
    for osc. strength at least    1.0000000000000001E-005

      From   To        Osc. strength     Einstein coefficients Ax, Ay, Az (sec-1)    Total A (sec-1)
     -----------------------------------------------------------------------------------------------
         1   13       8.99127615E-02  5.27964609E+07  1.94758985E+09  5.88251697E+05  2.00097456E+09
         1   15       9.00929277E-02  1.94758986E+09  5.27964609E+07  4.59777389E+06  2.00498409E+09
         1   17       2.37317121E-04  4.97447872E+06  3.33460092E+05  9.60790912E-09  5.30793881E+06
         2   14       8.99127615E-02  5.27964609E+07  1.94758985E+09  5.88251697E+05  2.00097456E+09
         2   16       9.00929277E-02  1.94758986E+09  5.27964609E+07  4.59777389E+06  2.00498409E+09
         2   18       2.37317121E-04  4.97447872E+06  3.33460092E+05  9.60790912E-09  5.30793881E+06
         3   13       9.00929274E-02  1.94758986E+09  5.27964606E+07  4.59776773E+06  2.00498409E+09
         3   15       8.99127618E-02  5.27964608E+07  1.94758985E+09  5.88252054E+05  2.00097457E+09
         3   17       2.37317105E-04  3.33460114E+05  4.97447833E+06  1.94623392E-10  5.30793844E+06
         4   14       9.00929274E-02  1.94758986E+09  5.27964606E+07  4.59776773E+06  2.00498409E+09
         4   16       8.99127618E-02  5.27964608E+07  1.94758985E+09  5.88252054E+05  2.00097457E+09
         4   18       2.37317105E-04  3.33460114E+05  4.97447833E+06  1.94623392E-10  5.30793844E+06
         5   11       3.26744269E-05  1.60086841E+04  2.89012474E+05  5.84854219E-13  3.05021158E+05
         5   13       8.03518347E-02  4.90522807E+06  9.88037291E+04  1.78139980E+09  1.78640383E+09
         5   15       9.10192118E-03  9.88038884E+04  4.90523091E+06  1.97352351E+08  2.02356386E+08
         5   17       9.03069082E-02  1.05902980E+08  1.91191745E+09  3.83408089E-08  2.01782043E+09
         6   12       3.26744269E-05  1.60086841E+04  2.89012474E+05  5.84854219E-13  3.05021158E+05
         6   14       8.03518347E-02  4.90522807E+06  9.88037291E+04  1.78139980E+09  1.78640383E+09
         6   16       9.10192118E-03  9.88038884E+04  4.90523091E+06  1.97352351E+08  2.02356386E+08
         6   18       9.03069082E-02  1.05902980E+08  1.91191745E+09  3.83408089E-08  2.01782043E+09
         7   11       3.26744271E-05  2.89012476E+05  1.60086840E+04  4.99916884E-14  3.05021160E+05
         7   13       9.10192120E-03  9.88035934E+04  4.90523151E+06  1.97352351E+08  2.02356386E+08
         7   15       8.03518347E-02  4.90523393E+06  9.88037232E+04  1.78139979E+09  1.78640383E+09
         7   17       9.03069082E-02  1.91191745E+09  1.05902980E+08  3.25928734E-07  2.01782043E+09
         8   12       3.26744271E-05  2.89012476E+05  1.60086840E+04  4.99916884E-14  3.05021160E+05
         8   14       9.10192120E-03  9.88035934E+04  4.90523151E+06  1.97352351E+08  2.02356386E+08
         8   16       8.03518347E-02  4.90523393E+06  9.88037232E+04  1.78139979E+09  1.78640383E+09
         8   18       9.03069082E-02  1.91191745E+09  1.05902980E+08  3.25928734E-07  2.01782043E+09
         9   11       2.70305312E-05  4.88458946E-11  4.18969208E-13  2.52200797E+05  2.52200797E+05
         9   13       3.05342439E-02  5.50182427E+06  6.73110762E+08  5.34572554E-10  6.78612586E+08
         9   15       3.05342434E-02  6.73110750E+08  5.50182429E+06  1.03389881E-07  6.78612575E+08
         9   17       1.18502002E-01  4.98185001E-07  2.79143888E-09  2.64690588E+09  2.64690588E+09
        10   12       2.70305312E-05  4.88458946E-11  4.18969208E-13  2.52200797E+05  2.52200797E+05
        10   14       3.05342439E-02  5.50182427E+06  6.73110762E+08  5.34572554E-10  6.78612586E+08
        10   16       3.05342434E-02  6.73110750E+08  5.50182429E+06  1.03389881E-07  6.78612575E+08
        10   18       1.18502002E-01  4.98185001E-07  2.79143888E-09  2.64690588E+09  2.64690588E+09
        11   13       3.92890921E-01  8.77501406E+06  1.07356325E+09  2.01203637E-09  1.08233826E+09
        11   15       3.92890921E-01  1.07356325E+09  8.77501406E+06  2.50932091E-07  1.08233826E+09
        11   17       3.93661444E-01  2.57105085E-07  1.97914547E-13  1.09998349E+09  1.09998349E+09
        12   14       3.92890921E-01  8.77501406E+06  1.07356325E+09  2.01203637E-09  1.08233826E+09
        12   16       3.92890921E-01  1.07356325E+09  8.77501406E+06  2.50932091E-07  1.08233826E+09
        12   18       3.93661444E-01  2.57105085E-07  1.97914547E-13  1.09998349E+09  1.09998349E+09
     -----------------------------------------------------------------------------------------------
--

++ Velocity transition strengths (SO states):
   ------------------------------------------
    for osc. strength at least    1.0000000000000001E-005

      From   To        Osc. strength     Einstein coefficients Ax, Ay, Az (sec-1)    Total A (sec-1)
     -----------------------------------------------------------------------------------------------
         1    5       3.71081395E-05  4.51972370E-02  1.63150258E-01  1.51312800E-08  2.08347510E-01
         1    7       3.71136038E-05  1.63150261E-01  4.51972363E-02  3.06934214E-05  2.08378190E-01
         1   13       7.52521027E-02  4.41879196E+07  1.63003243E+09  4.92605873E+05  1.67471296E+09
         1   15       7.54029746E-02  1.63003244E+09  4.41879196E+07  3.85020635E+06  1.67807057E+09
         1   17       1.98858906E-04  4.16835848E+06  2.79422484E+05  8.05468537E-09  4.44778097E+06
         2    6       3.71081395E-05  4.51972370E-02  1.63150258E-01  1.51312800E-08  2.08347510E-01
         2    8       3.71136038E-05  1.63150261E-01  4.51972363E-02  3.06934214E-05  2.08378190E-01
         2   14       7.52521027E-02  4.41879196E+07  1.63003243E+09  4.92605873E+05  1.67471296E+09
         2   16       7.54029746E-02  1.63003244E+09  4.41879196E+07  3.85020635E+06  1.67807057E+09
         2   18       1.98858906E-04  4.16835848E+06  2.79422484E+05  8.05468537E-09  4.44778097E+06
         3    5       3.71136038E-05  1.63150260E-01  4.51972368E-02  3.06932220E-05  2.08378190E-01
         3    7       3.71081397E-05  4.51972366E-02  1.63150260E-01  1.51331943E-08  2.08347511E-01
         3   13       7.54029744E-02  1.63003244E+09  4.41879194E+07  3.85020119E+06  1.67807056E+09
         3   15       7.52521030E-02  4.41879195E+07  1.63003244E+09  4.92606171E+05  1.67471296E+09
         3   17       1.98858892E-04  2.79422503E+05  4.16835816E+06  1.63480413E-10  4.44778066E+06
         4    6       3.71136038E-05  1.63150260E-01  4.51972368E-02  3.06932220E-05  2.08378190E-01
         4    8       3.71081397E-05  4.51972366E-02  1.63150260E-01  1.51331943E-08  2.08347511E-01
         4   14       7.54029744E-02  1.63003244E+09  4.41879194E+07  3.85020119E+06  1.67807056E+09
         4   16       7.52521030E-02  4.41879195E+07  1.63003244E+09  4.92606171E+05  1.67471296E+09
         4   18       1.98858892E-04  2.79422503E+05  4.16835816E+06  1.63480413E-10  4.44778066E+06
         5    9       3.14031819E-04  1.07959404E-02  1.94904308E-01  4.10597479E-18  2.05700249E-01
         5   11       2.70543231E-05  1.32551864E+04  2.39302255E+05  5.05726916E-13  2.52557441E+05
         5   13       6.72244782E-02  4.10158379E+06  8.26162960E+04  1.49037387E+09  1.49455807E+09
         5   15       7.61481611E-03  8.26164293E+04  4.10158617E+06  1.65111048E+08  1.69295250E+08
         5   17       7.55926307E-02  8.86478440E+07  1.60040218E+09  3.20693337E-08  1.68905002E+09
         6   10       3.14031819E-04  1.07959404E-02  1.94904308E-01  4.10597479E-18  2.05700249E-01
         6   12       2.70543231E-05  1.32551864E+04  2.39302255E+05  5.05726916E-13  2.52557441E+05
         6   14       6.72244782E-02  4.10158379E+06  8.26162960E+04  1.49037387E+09  1.49455807E+09
         6   16       7.61481611E-03  8.26164293E+04  4.10158617E+06  1.65111048E+08  1.69295250E+08
         6   18       7.55926307E-02  8.86478440E+07  1.60040218E+09  3.20693337E-08  1.68905002E+09
         7    9       3.14031816E-04  1.94904307E-01  1.07959405E-02  1.06446775E-16  2.05700247E-01
         7   11       2.70543233E-05  2.39302257E+05  1.32551863E+04  1.14338308E-14  2.52557443E+05
         7   13       7.61481613E-03  8.26161825E+04  4.10158668E+06  1.65111048E+08  1.69295251E+08
         7   15       6.72244782E-02  4.10158870E+06  8.26162911E+04  1.49037386E+09  1.49455807E+09
         7   17       7.55926307E-02  1.60040218E+09  8.86478440E+07  2.72776971E-07  1.68905002E+09
         8   10       3.14031816E-04  1.94904307E-01  1.07959405E-02  1.06446775E-16  2.05700247E-01
         8   12       2.70543233E-05  2.39302257E+05  1.32551863E+04  1.14338308E-14  2.52557443E+05
         8   14       7.61481613E-03  8.26161825E+04  4.10158668E+06  1.65111048E+08  1.69295251E+08
         8   16       6.72244782E-02  4.10158870E+06  8.26162911E+04  1.49037386E+09  1.49455807E+09
         8   18       7.55926307E-02  1.60040218E+09  8.86478440E+07  2.72776971E-07  1.68905002E+09
         9   11       2.19298961E-05  4.08510422E-11  4.87253282E-13  2.04611462E+05  2.04611462E+05
         9   13       2.55731923E-02  4.60793133E+06  5.63749044E+08  4.46813490E-10  5.68356976E+08
         9   15       2.55731919E-02  5.63749035E+08  4.60793136E+06  8.66189259E-08  5.68356966E+08
         9   17       9.91194506E-02  4.16648515E-07  2.33672617E-09  2.21397752E+09  2.21397752E+09
        10   12       2.19298961E-05  4.08510422E-11  4.87253282E-13  2.04611462E+05  2.04611462E+05
        10   14       2.55731923E-02  4.60793133E+06  5.63749044E+08  4.46813490E-10  5.68356976E+08
        10   16       2.55731919E-02  5.63749035E+08  4.60793136E+06  8.66189259E-08  5.68356966E+08
        10   18       9.91194506E-02  4.16648515E-07  2.33672617E-09  2.21397752E+09  2.21397752E+09
        11   13       3.72459714E-01  8.31872261E+06  1.01773910E+09  1.90758415E-09  1.02605782E+09
        11   15       3.72459714E-01  1.01773910E+09  8.31872261E+06  2.37876511E-07  1.02605782E+09
        11   17       3.73126635E-01  2.43712279E-07  1.82162560E-13  1.04260798E+09  1.04260798E+09
        12   14       3.72459714E-01  8.31872261E+06  1.01773910E+09  1.90758415E-09  1.02605782E+09
        12   16       3.72459714E-01  1.01773910E+09  8.31872261E+06  2.37876511E-07  1.02605782E+09
        12   18       3.73126635E-01  2.43712279E-07  1.82162560E-13  1.04260798E+09  1.04260798E+09
     -----------------------------------------------------------------------------------------------
--

++ Length and velocity gauge comparison (SO states):

 --------------------------------------------------
 A comparison between the dipole oscillator strengths in 
 length and velocity gauge will be performed

 All dipole oscillator differences above the tolerance of   0.10000000000000001       will be printed 

 Due to basis set deficiency these oscillator may be problematic 

 The tolerance is defined as ABS(1-O_l/O_v) 
 O_l : dipole oscillator strength in length gauge
 O_p : dipole oscillator strength in velocity gauge
 --------------------------------------------------

  Problematic transitions have been found

      From   To       Difference (%) Osc. st. (len.) Osc. st. (vel.)
     ---------------------------------------------------------------
         1    5      --------------- below threshold  3.71081395E-05
         1    7      --------------- below threshold  3.71136038E-05
         1   13            19.482059  8.99127615E-02  7.52521027E-02
         1   15            19.481928  9.00929277E-02  7.54029746E-02
         1   17            19.339448  2.37317121E-04  1.98858906E-04
         2    6      --------------- below threshold  3.71081395E-05
         2    8      --------------- below threshold  3.71136038E-05
         2   14            19.482059  8.99127615E-02  7.52521027E-02
         2   16            19.481928  9.00929277E-02  7.54029746E-02
         2   18            19.339448  2.37317121E-04  1.98858906E-04
         3    5      --------------- below threshold  3.71136038E-05
         3    7      --------------- below threshold  3.71081397E-05
         3   13            19.481928  9.00929274E-02  7.54029744E-02
         3   15            19.482059  8.99127618E-02  7.52521030E-02
         3   17            19.339448  2.37317105E-04  1.98858892E-04
         4    6      --------------- below threshold  3.71136038E-05
         4    8      --------------- below threshold  3.71081397E-05
         4   14            19.481928  9.00929274E-02  7.54029744E-02
         4   16            19.482059  8.99127618E-02  7.52521030E-02
         4   18            19.339448  2.37317105E-04  1.98858892E-04
         5    9      --------------- below threshold  3.14031819E-04
         5   11            20.773404  3.26744269E-05  2.70543231E-05
         5   13            19.527643  8.03518347E-02  6.72244782E-02
         5   15            19.529100  9.10192118E-03  7.61481611E-03
         5   17            19.465227  9.03069082E-02  7.55926307E-02
         6   10      --------------- below threshold  3.14031819E-04
         6   12            20.773404  3.26744269E-05  2.70543231E-05
         6   14            19.527643  8.03518347E-02  6.72244782E-02
         6   16            19.529100  9.10192118E-03  7.61481611E-03
         6   18            19.465227  9.03069082E-02  7.55926307E-02
         7    9      --------------- below threshold  3.14031816E-04
         7   11            20.773404  3.26744271E-05  2.70543233E-05
         7   13            19.529100  9.10192120E-03  7.61481613E-03
         7   15            19.527643  8.03518347E-02  6.72244782E-02
         7   17            19.465227  9.03069082E-02  7.55926307E-02
         8   10      --------------- below threshold  3.14031816E-04
         8   12            20.773404  3.26744271E-05  2.70543233E-05
         8   14            19.529100  9.10192120E-03  7.61481613E-03
         8   16            19.527643  8.03518347E-02  6.72244782E-02
         8   18            19.465227  9.03069082E-02  7.55926307E-02
         9   11            23.258820  2.70305312E-05  2.19298961E-05
         9   13            19.399422  3.05342439E-02  2.55731923E-02
         9   15            19.399422  3.05342434E-02  2.55731919E-02
         9   17            19.554740  1.18502002E-01  9.91194506E-02
        10   12            23.258820  2.70305312E-05  2.19298961E-05
        10   14            19.399422  3.05342439E-02  2.55731923E-02
        10   16            19.399422  3.05342434E-02  2.55731919E-02
        10   18            19.554740  1.18502002E-01  9.91194506E-02
     ---------------------------------------------------------------

 Number of problematic transitions =                    48

--

 Electric-dipole - electric-octupole not included
++ I/O STATISTICS
 
  I. General I/O information
  - - - - - - - - - - - - - - - - - - - - - - - - - - - - - - - - - - - - - - - - - - -
  Unit  Name          Flsize      Write/Read            MBytes           Write/Read
                      (MBytes)       Calls              In/Out           Time, sec.
  - - - - - - - - - - - - - - - - - - - - - - - - - - - - - - - - - - - - - - - - - - -
   1  SCRATCH           0.00 .       9/      45 .      0.0/      0.0 .       0/       0
   2  ANNI              0.00 .       0/       0 .      0.0/      0.0 .       0/       0
   3  RUNFILE          14.89 .     322/    9923 .      2.3/     72.0 .       0/       0
   4  ONEINT            5.68 .       0/   24849 .      0.0/   3743.6 .       0/       0
   5  JOBIPH            6.59 .       0/      92 .      0.0/      0.8 .       0/       0
   6  ORDINT          529.03 .       1/    4233 .      0.0/   1058.0 .       0/       0
  - - - - - - - - - - - - - - - - - - - - - - - - - - - - - - - - - - - - - - - - - - -
   *  TOTAL           556.21 .     332/   39142 .      2.3/   4874.4 .       0/       0
  - - - - - - - - - - - - - - - - - - - - - - - - - - - - - - - - - - - - - - - - - - -
 
  II. I/O Access Patterns
  - - - - - - - - - - - - - - - - - - - -
  Unit  Name               % of random
                         Write/Read calls
  - - - - - - - - - - - - - - - - - - - -
   1  SCRATCH             88.9/ 100.0
   2  ANNI                 0.0/   0.0
   3  RUNFILE             28.6/  10.8
   4  ONEINT               0.0/  15.5
   5  JOBIPH               0.0/  76.1
   6  ORDINT             100.0/   0.0
  - - - - - - - - - - - - - - - - - - - -
--
--- Stop Module: rassi at Thu Dec 26 11:55:26 2024 /rc=_RC_ALL_IS_WELL_ ---
*** files: xmldump
    saved to directory /home4/s4752295/Internship/Initial_simulations/Point_charge_model/1_electron/active_space_9_non_rel/Mo/varying_bond_length
--- Module rassi spent 2 seconds ---

.##################.
.# Happy landing! #.
.##################.

    Timing: Wall=44.32 User=36.42 System=7.17

###############################################################################
Hbrk Cluster
Job 14416906 for user s4752295
Finished at: Thu Dec 26 11:55:26 CET 2024

Job details:
============

Job ID                         : 14416906
Name                           : Mo_no_c_light
User                           : s4752295
Partition                      : regularmedium
Nodes                          : node80
Number of Nodes                : 1
Cores                          : 1
Number of Tasks                : 1
State                          : RUNNING  
Submit                         : 2024-12-26T11:54:38
Start                          : 2024-12-26T11:54:39
End                            : --
Reserved walltime              : 15:00:00
Used walltime                  : 00:00:47
Used CPU time                  : -- 
% User (Computation)           : --
% System (I/O)                 : --
Total memory reserved          : 25000M
Maximum memory used            : --

Acknowledgements:
=================

Please see this page for information about acknowledging Hbrk in your publications:

https://wiki.hpc.rug.nl/habrok/introduction/scientific_output

################################################################################
