   This run of MOLCAS is using the pymolcas driver

                             OPE
                             OPE          NMOL  CASOP  ENMOLC A   SO
                 OPE        NMOLC        AS  OP EN  MO LC     AS  OP
                OPENM       OL CA        SO  PE NM  OL CA     SOP EN
                OP EN      MO   LC       AS  OP ENMOL  CASO   PENMOL
                OP  EN     MO   LC       AS  OP EN     MO     LC ASO
               OP   E  NMOL  C  AS       OP  EN MO     LC     AS  OP
               OP  E   NMO   LC AS        OPEN  MO     LCASOP EN   M
               O  PEN   MO  LCA  SO
            OPE   NMO   L   CAS    OP
        OPENMOL  CASOP     ENMOL   CASOPE
     OPENMOLCA   SOPENMOLCASOPEN   MOLCASOPE
    OPENMOLCAS   OP           EN   MOL    CAS
    OPENMOLCAS       OP  ENM        O     LCA
    OPENMOLCAS    OPEN  MOLCASO     P  E  NMO
    OPENMOLCAS     OP               E  N  MOL
    OPENMOLCA   SO           PENM   O  L  CAS    OPEN    MO    LCAS
    OPENMOLCA   SOP           ENM   O  L  CAS   OP  EN  MOLC  AS   O
    OPENMOLCA   SOPE           NM      O  LCA   S      OP  EN MO
    OPENMOLC                AS         O  PEN   M      OL  CA  SOPE
    OPENMO        LCASOPE  NMOL        C  ASO   P      ENMOLC     AS
    OPE     NMO      LCA  SO     P     E   NM   OL  CA SO  PE N   MO
          OPENMOLCA            SOPE   NMO        LCAS  O    P  ENMO
     OPENMOLCASOPENMOLCASOPENMOLCASOPENMOLCA
        OPENMOLCASOPENMOLCASOPENMOLCASOPE
            OPENMOLCASOPENMOLCASOPENM
               OPENMOLCASOPENMOLCA        version: o91e1abe7de707b ?
                   OPENMOLCASO
                       OPE                tag:

 OpenMolcas is free software; you can redistribute it and/or modify it
 under the terms of the GNU Lesser General Public License version 2.1.
 OpenMolcas is distributed in the hope that it will be useful, but it
 is provided "as is" and without any express or implied warranties.
 For more details see the full text of the license in the file
 LICENSE or in <http://www.gnu.org/licenses/>.

                 Copyright (C) The OpenMolcas Authors
           For the author list and the recommended citation,
                   consult the file CONTRIBUTORS.md

           *************************************************
           * pymolcas version py2.10                       *
           *   build 3068ae8b88c9345ec6cfef6fef7f1169      *
           *   (after the EMIL interpreter by V. Veryazov) *
           *************************************************

configuration info
------------------
Host name: login1 (Linux)
C Compiler ID: GNU
C flags: -std=gnu99
Fortran Compiler ID: GNU
Fortran flags: -fno-aggressive-loop-optimizations -cpp -fdefault-integer-8 -fmax-stack-var-size=1048576
Definitions: _MOLCAS_;_I8_;_LINUX_;_MKL_
Parallel: OFF (GA=OFF)


   ----------------------------------------------------------------------------------------------------------------------------------------------
  |
  |           Project: molybdenum_so_cf
  |    Submitted from: /home4/s4752295/Internship/Initial_simulations/Point_charge_model/1_electron/active_space_9_non_rel/Mo/varying_bond_length
  |      Scratch area: /tmp/molybdenum_so_cf
  |   Save outputs to: /home4/s4752295/Internship/Initial_simulations/Point_charge_model/1_electron/active_space_9_non_rel/Mo/varying_bond_length
  |            Molcas: /home4/s4752295/Internship/Molcas/recomp_try/OpenMolcas-master/build
  |
  | Scratch area is empty
  |
  |    MOLCAS_DRIVER = /home4/s4752295/Internship/Molcas/bin/pymolcas
  |    MOLCAS_NPROCS = 1
  |    MOLCAS_SOURCE = /home4/s4752295/Internship/Molcas/recomp_try/OpenMolcas-master
  | MOLCAS_STRUCTURE = 0
  |
   ----------------------------------------------------------------------------------------------------------------------------------------------

++ ---------   Input file   ---------

&SEWARD
AMFi

CLIG
$R

Basis Set
Mo.ANO-rcc.Roos.21s18p13d6f4g2h.10s9p9d6f4g2h.
Spherical d
Mo            0.0       0.0     0.0
End of Basis

Xfield

4
0.000000,  0.00000,  1.7010     -1.0
1.473109,  0.00000, -0.8505     -1.0
-0.736555,  1.27575, -0.8505    -1.0
-0.736555, -1.27575, -0.8505    -1.0

End of input

&SCF
Occupied
18
Iterations
   50  100
End of Input

&RASSCF
LumOrb
Symmetry
1
Spin
2
Nactel
1 0 0
CIRoot
9 9 1
inactive
18
ras2
9
End of Input

>>> COPY molybdenum_so_cf.JobIph $SLURM_SUBMIT_DIR/molybdenum_so_cf.doublet.JobIph

>>> COPY $SLURM_SUBMIT_DIR/molybdenum_so_cf.doublet.JobIph ./JOB002

&RASSI
NROFJobIph
1 All
SpinOrbit
End of Input

EOF

-- ----------------------------------

--- Start Module: seward at Fri Jan 10 02:18:15 2025 ---

()()()()()()()()()()()()()()()()()()()()()()()()()()()()()()()()()()()()()()()()()()()()()()()()()()

                                              &SEWARD

                                   only a single process is used
                       available to each process: 4.1 GB of memory, 1 thread?
                                            pid: 1089981
()()()()()()()()()()()()()()()()()()()()()()()()()()()()()()()()()()()()()()()()()()()()()()()()()()

 The speed of LIGHT in this CALCULATION =   137.03599917700001     
               SEWARD will generate:
                  Multipole Moment integrals up to order  2
                  Kinetic Energy integrals
                  Nuclear Attraction integrals (point charge)
                  One-Electron Hamiltonian integrals
                  Velocity integrals
                  Relativistic Douglas-Kroll-Hess integrals:
                    - Parametrization         : EXP
                    - DKH order of Hamiltonian: 2
                    - DKH order of Properties : 0
                         - multipole moment operators
                         - electric potential operators
                         - contact operators
                  External field from     4 point(s) added to the one-electron Hamiltonian
                  Orbital angular momentum around ( 0.0000  0.0000  0.0000 )
                  Velocity quadrupole around ( 0.0000  0.0000  0.0000 )
                  Atomic mean-field integrals
                  Two-Electron Repulsion integrals

                   Integrals are discarded if absolute value <: 0.10E-13
                   Integral cutoff threshold is set to       <: 0.10E-15

++    Symmetry information:
      ---------------------

                    Character Table for C1 

                             E  
                    a        1  x, y, xy, Rz, z, xz, Ry, yz, Rx, I
--


++    Basis set information:
      ----------------------


      Basis set label: MO.ANO-RCC.ROOS.21S18P13D6F4G2H.10S9P9D6F4G2H......

      Electronic valence basis set:
      ------------------
      Associated Effective Charge  42.000000 au
      Associated Actual Charge     42.000000 au
      Nuclear Model: Point charge

      Shell  nPrim  nBasis  Cartesian Spherical Contaminant
         s      21      10        X                  
         p      18       9        X                  
         d      13       9                 X         
         f       6       6                 X         
         g       4       4                 X         
         h       2       2                 X         
--


++    Molecular structure info:
      -------------------------

                    ************************************************ 
                    **** Cartesian Coordinates / Bohr, Angstrom **** 
                    ************************************************ 

     Center  Label                x              y              z                     x              y              z
        1      MO               0.000000       0.000000       0.000000              0.000000       0.000000       0.000000
--


++    Operator info:
      --------------


  Net charge from external field:   -4.0000000000000000     
--


            Nuclear Potential Energy              0.00000000 au

                    Nuclear-External Field Potential Energy     -98.76542981 au
                    External Field Potential Energy               2.19403334 au 


            Total Nuclear Potential Energy            -98.76542981 au


      Basis set specifications :
      Symmetry species         a  
      Basis functions          182

 Sorry, Molden does not know how to handle
 functions with angular momentum larger than g
Note: The following floating-point exceptions are signalling: IEEE_UNDERFLOW_FLAG IEEE_DENORMAL
--- Stop Module: seward at Fri Jan 10 02:18:25 2025 /rc=_RC_ALL_IS_WELL_ ---
*** files: molybdenum_so_cf.GssOrb xmldump
    saved to directory /home4/s4752295/Internship/Initial_simulations/Point_charge_model/1_electron/active_space_9_non_rel/Mo/varying_bond_length
--- Module seward spent 10 seconds ---

*** symbolic link created: INPORB -> molybdenum_so_cf.GssOrb
--- Start Module: scf at Fri Jan 10 02:18:25 2025 ---

()()()()()()()()()()()()()()()()()()()()()()()()()()()()()()()()()()()()()()()()()()()()()()()()()()

                                                &SCF

                                   only a single process is used
                       available to each process: 4.1 GB of memory, 1 thread?
                                            pid: 1090007
()()()()()()()()()()()()()()()()()()()()()()()()()()()()()()()()()()()()()()()()()()()()()()()()()()

++    Input section:
      --------------

      Header of the integral files:
      
       Integrals generated by seward 4.2.0  , Fri Jan 10 02:18:15 2025


      Cartesian coordinates in Angstrom:
      -----------------------------------------------------
      No.  Label        X            Y            Z        
      -----------------------------------------------------
       1   MO         0.00000000   0.00000000   0.00000000
      -----------------------------------------------------
      Nuclear repulsion energy =  -98.76542981
--

++    Orbital specifications:
      -----------------------

      Symmetry species               1
                                     a
      Frozen orbitals                0
      Occupied orbitals             18
      Secondary orbitals           164
      Deleted orbitals               0
      Total number of orbitals     182
      Number of basis functions    182
--

      Molecular charge                           6.000

++    Optimization specifications:
      ----------------------------

      SCF Algorithm: Conventional
      Minimized density differences are used
      Number of density matrices in core                5
      Maximum number of NDDO SCF iterations            50
      Maximum number of HF SCF iterations             100
      Threshold for SCF energy change            0.10E-08
      Threshold for density matrix               0.10E-03
      Threshold for Fock matrix                  0.15E-03
      Threshold for linear dependence            0.10E-08
      Threshold at which DIIS is turned on       0.15E+00
      Threshold at which QNR/C2DIIS is turned on 0.75E-01
      Threshold for Norm(delta) (QNR/C2DIIS)     0.20E-04
      DIIS extrapolation of the SCF procedure
      All orbitals punched on: SCFORB
--

      Detected guessorb starting orbitals                                             


++ Convergence information
                                   SCF        iterations: Energy and convergence statistics

Iter     Tot. SCF        One-elec.       Two-elec.     Energy      Max Dij or  Max Fij      DNorm      TNorm      AccCon     Time
         Energy          Energy          Energy        Change      Delta Norm                                                in Sec.

 The total and one-electron energies are shifted by a value of      4000. a.u.

   1   -52.283434529 -1359.542454010  1406.024449289   0.00E+00    0.11E+00*   0.20E+00*    0.85E+01   0.55E+03   None         1.
   2   -52.595762907 -1373.051930692  1419.221597593  -0.31E+00*   0.48E-01*   0.49E-01*    0.80E+00   0.55E+03   EDIIS        1.
   3   -52.609444737 -1369.132916337  1415.288901408  -0.14E-01*   0.87E-02*   0.22E-01*    0.17E+00   0.55E+03   EDIIS        1.
   4   -52.611001312 -1370.710871622  1416.865300118  -0.16E-02*   0.55E-02*   0.78E-02*    0.34E-01   0.55E+03   c2DIIS       1.
   5   -52.611229553 -1370.147906637  1416.302106892  -0.23E-03*   0.16E-02*   0.18E-02*    0.37E-02   0.55E+03   QNRc2DIIS    1.
   6   -52.611248407 -1370.270421977  1416.424603379  -0.19E-04*   0.75E-03*   0.73E-03*    0.97E-03   0.55E+03   QNRc2DIIS    1.
   7   -52.611251078 -1370.232917048  1416.387095777  -0.27E-05*   0.31E-04*   0.31E-04     0.11E-03   0.55E+03   QNRc2DIIS    1.
   8   -52.611251083 -1370.231758747  1416.385937472  -0.45E-08*   0.35E-05    0.59E-05     0.23E-04   0.55E+03   QNRc2DIIS    1.
   9   -52.611251083 -1370.231684137  1416.385862861  -0.95E-10    0.64E-06    0.67E-06     0.43E-02   0.55E+03   QNRc2DIIS    1.

       Convergence after  9 Macro Iterations
--

 *****************************************************************************************************************************
 *                                                                                                                           *
 *                                             SCF/KS-DFT Program, Final results                                             *
 *                                                                                                                           *
 *                                                                                                                           *
 *                                                                                                                           *
 *                                                       Final Results                                                       *
 *                                                                                                                           *
 *****************************************************************************************************************************

::    Total SCF energy                              -4052.6112510831
      One-electron energy                           -5370.2316841367
      Two-electron energy                            1416.3858628614
      Nuclear repulsion energy                        -98.7654298078
      Kinetic energy (interpolated)                  4467.6066009439
      Virial theorem                                    0.9071101404
      Total spin, S(S+1)                                0.0000000000
      Total spin, S                                     0.0000000000
      Max non-diagonal density matrix element           0.0000005060
      Max non-diagonal Fock matrix element              0.0000002188


      All orbitals with orbital energies smaller than  E(LUMO)+0.5 are printed

++    Molecular orbitals:
      -------------------

      Title: SCF orbitals

      Molecular orbitals for symmetry species 1: a  

          Orbital            1         2         3         4         5         6         7         8         9        10    
          Energy         -739.6787 -108.1263  -96.5805  -96.5805  -96.5798  -20.3759  -16.4791  -16.4791  -16.4701  -10.1169
          Occ. No.          2.0000    2.0000    2.0000    2.0000    2.0000    2.0000    2.0000    2.0000    2.0000    2.0000

        1 MO     1s         1.0000   -0.0000   -0.0000   -0.0000   -0.0000    0.0000   -0.0000    0.0000    0.0000    0.0000
        2 MO     2s         0.0000    1.0000   -0.0000   -0.0000   -0.0001    0.0001    0.0000   -0.0000   -0.0000    0.0000
        3 MO     3s        -0.0000   -0.0001    0.0000    0.0000    0.0000    1.0000   -0.0000   -0.0000   -0.0026    0.0000
        4 MO     4s         0.0000    0.0000   -0.0000   -0.0000   -0.0000   -0.0019    0.0000    0.0000    0.0007   -0.0000
        5 MO     5s        -0.0000   -0.0000    0.0000    0.0000    0.0000    0.0003    0.0000   -0.0000   -0.0001    0.0000
        6 MO     6s         0.0000    0.0000   -0.0000   -0.0000   -0.0000   -0.0003    0.0000    0.0000    0.0001   -0.0000
        7 MO     7s        -0.0000   -0.0000    0.0000    0.0000    0.0000    0.0007   -0.0000   -0.0000   -0.0002    0.0000
        8 MO     8s         0.0000    0.0000   -0.0000   -0.0000   -0.0000   -0.0005   -0.0000    0.0000    0.0001    0.0000
        9 MO     9s        -0.0000   -0.0000    0.0000    0.0000    0.0000    0.0004   -0.0000   -0.0000   -0.0001   -0.0000
       10 MO    10s         0.0000    0.0000   -0.0000   -0.0000   -0.0000   -0.0003    0.0000    0.0000    0.0000    0.0000
       11 MO     2px        0.0000    0.0000    0.0047    1.0000   -0.0000   -0.0000   -0.0000    0.0001   -0.0000   -0.0000
       12 MO     3px       -0.0000    0.0000   -0.0000   -0.0001    0.0000   -0.0000   -0.0000    1.0000   -0.0000    0.0003
       13 MO     4px        0.0000   -0.0000    0.0000    0.0001   -0.0000    0.0000    0.0000   -0.0024    0.0000   -0.0007
       14 MO     5px       -0.0000    0.0000   -0.0000   -0.0000    0.0000    0.0000   -0.0000    0.0005   -0.0000    0.0001
       15 MO     6px        0.0000   -0.0000    0.0000    0.0000   -0.0000   -0.0000    0.0000   -0.0009    0.0000   -0.0000
       16 MO     7px       -0.0000    0.0000   -0.0000   -0.0000    0.0000    0.0000   -0.0000    0.0006   -0.0000   -0.0001
       17 MO     8px        0.0000   -0.0000    0.0000    0.0000   -0.0000    0.0000    0.0000   -0.0005    0.0000    0.0001
       18 MO     9px       -0.0000    0.0000   -0.0000   -0.0000    0.0000   -0.0000   -0.0000    0.0004   -0.0000   -0.0001
       19 MO    10px        0.0000   -0.0000    0.0000    0.0000   -0.0000    0.0000    0.0000   -0.0002    0.0000    0.0000
       20 MO     2py        0.0000    0.0000    1.0000   -0.0047   -0.0000    0.0000    0.0001    0.0000   -0.0000   -0.0000
       21 MO     3py        0.0000   -0.0000   -0.0001    0.0000    0.0000    0.0000    1.0000    0.0000   -0.0000    0.0000
       22 MO     4py        0.0000    0.0000    0.0001   -0.0000   -0.0000   -0.0000   -0.0024   -0.0000   -0.0000   -0.0000
       23 MO     5py       -0.0000   -0.0000   -0.0000    0.0000    0.0000    0.0000    0.0005    0.0000    0.0000    0.0000
       24 MO     6py        0.0000    0.0000    0.0000   -0.0000   -0.0000   -0.0000   -0.0009   -0.0000    0.0000   -0.0000
       25 MO     7py        0.0000   -0.0000   -0.0000    0.0000    0.0000    0.0000    0.0006    0.0000   -0.0000   -0.0000
       26 MO     8py       -0.0000    0.0000    0.0000   -0.0000   -0.0000   -0.0000   -0.0005   -0.0000   -0.0000    0.0000
       27 MO     9py        0.0000   -0.0000   -0.0000    0.0000    0.0000    0.0000    0.0004    0.0000    0.0000   -0.0000
       28 MO    10py       -0.0000    0.0000    0.0000   -0.0000   -0.0000   -0.0000   -0.0002   -0.0000    0.0000    0.0000
       29 MO     2pz        0.0000    0.0001    0.0000    0.0000    1.0000   -0.0000   -0.0000    0.0000    0.0002   -0.0000
       30 MO     3pz       -0.0000    0.0000   -0.0000   -0.0000   -0.0002    0.0026   -0.0000    0.0000    1.0000   -0.0000
       31 MO     4pz        0.0000   -0.0000    0.0000    0.0000    0.0001    0.0004    0.0000   -0.0000   -0.0031    0.0000
       32 MO     5pz       -0.0000    0.0000   -0.0000   -0.0000   -0.0000   -0.0001   -0.0000    0.0000    0.0006   -0.0000
       33 MO     6pz        0.0000   -0.0000    0.0000    0.0000    0.0000    0.0002   -0.0000   -0.0000   -0.0012    0.0000
       34 MO     7pz       -0.0000    0.0000   -0.0000   -0.0000   -0.0000   -0.0001    0.0000    0.0000    0.0007   -0.0000
       35 MO     8pz        0.0000   -0.0000    0.0000    0.0000    0.0000    0.0001    0.0000   -0.0000   -0.0006    0.0000
       36 MO     9pz       -0.0000    0.0000   -0.0000   -0.0000   -0.0000   -0.0001   -0.0000    0.0000    0.0004   -0.0000
       37 MO    10pz        0.0000   -0.0000    0.0000    0.0000    0.0000    0.0000    0.0000   -0.0000   -0.0002    0.0000
       38 MO     3d2-       0.0000    0.0000   -0.0000    0.0000   -0.0000   -0.0000    0.0008    0.0000   -0.0000   -0.0000
       39 MO     4d2-       0.0000   -0.0000   -0.0000    0.0000    0.0000    0.0000    0.0003    0.0000   -0.0000    0.0000
       40 MO     5d2-      -0.0000    0.0000    0.0000   -0.0000    0.0000   -0.0000   -0.0002   -0.0000   -0.0000   -0.0000
       41 MO     6d2-      -0.0000   -0.0000   -0.0000    0.0000   -0.0000    0.0000    0.0001    0.0000    0.0000    0.0000
       42 MO     7d2-       0.0000    0.0000    0.0000   -0.0000   -0.0000   -0.0000    0.0000    0.0000    0.0000   -0.0000
       43 MO     8d2-      -0.0000   -0.0000    0.0000   -0.0000    0.0000    0.0000   -0.0001   -0.0000    0.0000    0.0000
       44 MO     9d2-      -0.0000    0.0000   -0.0000    0.0000    0.0000   -0.0000    0.0001    0.0000   -0.0000   -0.0000
       45 MO    10d2-       0.0000   -0.0000    0.0000   -0.0000   -0.0000    0.0000   -0.0001   -0.0000    0.0000    0.0000
       46 MO    11d2-      -0.0000    0.0000   -0.0000    0.0000    0.0000    0.0000    0.0000    0.0000    0.0000   -0.0000
       47 MO     3d1-       0.0000   -0.0000    0.0000   -0.0000   -0.0000   -0.0000    0.0022    0.0000   -0.0000    0.0000
       48 MO     4d1-       0.0000    0.0000   -0.0000    0.0000    0.0000    0.0000    0.0004    0.0000   -0.0000   -0.0000
       49 MO     5d1-      -0.0000   -0.0000    0.0000   -0.0000   -0.0000   -0.0000   -0.0004   -0.0000    0.0000    0.0000
       50 MO     6d1-      -0.0000    0.0000   -0.0000    0.0000    0.0000    0.0000    0.0002    0.0000   -0.0000   -0.0000
       51 MO     7d1-       0.0000   -0.0000    0.0000   -0.0000    0.0000   -0.0000   -0.0001   -0.0000   -0.0000    0.0000
       52 MO     8d1-      -0.0000    0.0000   -0.0000    0.0000   -0.0000   -0.0000    0.0000    0.0000   -0.0000   -0.0000
       53 MO     9d1-       0.0000   -0.0000   -0.0000    0.0000    0.0000    0.0000    0.0000    0.0000    0.0000    0.0000
       54 MO    10d1-      -0.0000    0.0000    0.0000   -0.0000   -0.0000   -0.0000   -0.0000   -0.0000    0.0000   -0.0000
       55 MO    11d1-       0.0000   -0.0000   -0.0000    0.0000    0.0000    0.0000    0.0000    0.0000    0.0000    0.0000
       56 MO     3d0       -0.0000   -0.0000    0.0000    0.0000    0.0000   -0.0007    0.0000   -0.0000    0.0004    0.0000
       57 MO     4d0        0.0000    0.0000    0.0000    0.0000    0.0000   -0.0002    0.0000   -0.0000   -0.0002   -0.0000
       58 MO     5d0       -0.0000   -0.0000   -0.0000   -0.0000   -0.0000    0.0001   -0.0000    0.0000    0.0001    0.0000
       59 MO     6d0        0.0000    0.0000    0.0000    0.0000    0.0000   -0.0001    0.0000    0.0000    0.0000   -0.0000
       60 MO     7d0       -0.0000   -0.0000   -0.0000    0.0000    0.0000    0.0001   -0.0000   -0.0000   -0.0001    0.0000
       61 MO     8d0        0.0000    0.0000   -0.0000   -0.0000   -0.0000   -0.0001   -0.0000    0.0000    0.0002   -0.0000
       62 MO     9d0       -0.0000   -0.0000    0.0000    0.0000    0.0000    0.0000    0.0000   -0.0000   -0.0002    0.0000
       63 MO    10d0        0.0000    0.0000   -0.0000   -0.0000   -0.0000   -0.0000   -0.0000    0.0000    0.0001   -0.0000
       64 MO    11d0       -0.0000   -0.0000    0.0000    0.0000    0.0000    0.0000    0.0000   -0.0000   -0.0000    0.0000
       65 MO     3d1+      -0.0000    0.0000    0.0000    0.0000    0.0000    0.0000   -0.0000    0.0022   -0.0000    0.1935
       66 MO     4d1+       0.0000   -0.0000   -0.0000   -0.0000    0.0000    0.0000   -0.0000    0.0004   -0.0000   -0.0000
       67 MO     5d1+      -0.0000    0.0000    0.0000    0.0000   -0.0000   -0.0000    0.0000   -0.0004    0.0000    0.0000
       68 MO     6d1+       0.0000   -0.0000   -0.0000   -0.0000    0.0000    0.0000   -0.0000    0.0002   -0.0000   -0.0000
       69 MO     7d1+      -0.0000    0.0000    0.0000    0.0000    0.0000   -0.0000    0.0000   -0.0001    0.0000    0.0001
       70 MO     8d1+       0.0000   -0.0000   -0.0000   -0.0000   -0.0000    0.0000   -0.0000    0.0000   -0.0000   -0.0001
       71 MO     9d1+       0.0000    0.0000   -0.0000   -0.0000    0.0000   -0.0000   -0.0000    0.0000   -0.0000    0.0001
       72 MO    10d1+      -0.0000   -0.0000    0.0000    0.0000   -0.0000    0.0000    0.0000   -0.0000    0.0000   -0.0001
       73 MO    11d1+       0.0000   -0.0000   -0.0000   -0.0000    0.0000   -0.0000   -0.0000    0.0000   -0.0000    0.0000
       74 MO     3d2+      -0.0000   -0.0000    0.0000    0.0000   -0.0000   -0.0000    0.0000   -0.0008    0.0000    0.9811
       75 MO     4d2+      -0.0000    0.0000    0.0000    0.0000   -0.0000   -0.0000    0.0000   -0.0003    0.0000   -0.0022
       76 MO     5d2+      -0.0000   -0.0000   -0.0000   -0.0000    0.0000    0.0000   -0.0000    0.0002   -0.0000    0.0016
       77 MO     6d2+       0.0000    0.0000    0.0000    0.0000   -0.0000   -0.0000    0.0000   -0.0001    0.0000   -0.0008
       78 MO     7d2+      -0.0000   -0.0000   -0.0000   -0.0000   -0.0000    0.0000    0.0000   -0.0000   -0.0000    0.0004
       79 MO     8d2+       0.0000    0.0000   -0.0000   -0.0000    0.0000   -0.0000   -0.0000    0.0001   -0.0000   -0.0004
       80 MO     9d2+      -0.0000   -0.0000    0.0000    0.0000   -0.0000    0.0000    0.0000   -0.0001    0.0000    0.0003
       81 MO    10d2+       0.0000    0.0000   -0.0000   -0.0000    0.0000   -0.0000   -0.0000    0.0001   -0.0000   -0.0004
       82 MO    11d2+      -0.0000   -0.0000    0.0000    0.0000   -0.0000    0.0000    0.0000   -0.0000    0.0000    0.0001
       83 MO     4f3-      -0.0000    0.0000   -0.0000    0.0000    0.0000    0.0000   -0.0000   -0.0000   -0.0000   -0.0000
       84 MO     5f3-      -0.0000    0.0000   -0.0000    0.0000    0.0000    0.0000   -0.0000   -0.0000    0.0000   -0.0000
       85 MO     6f3-       0.0000   -0.0000    0.0000   -0.0000   -0.0000   -0.0000    0.0000    0.0000    0.0000   -0.0000
       86 MO     7f3-      -0.0000    0.0000   -0.0000    0.0000    0.0000    0.0000   -0.0000   -0.0000   -0.0000   -0.0000
       87 MO     8f3-       0.0000   -0.0000   -0.0000    0.0000   -0.0000    0.0000   -0.0000   -0.0000    0.0000   -0.0000
       88 MO     9f3-      -0.0000    0.0000    0.0000   -0.0000   -0.0000   -0.0000    0.0000    0.0000   -0.0000    0.0000
       89 MO     4f2-      -0.0000   -0.0000   -0.0000    0.0000    0.0000   -0.0000   -0.0002   -0.0000    0.0000   -0.0000
       90 MO     5f2-       0.0000   -0.0000   -0.0000    0.0000    0.0000   -0.0000   -0.0002   -0.0000    0.0000   -0.0000
       91 MO     6f2-      -0.0000    0.0000    0.0000   -0.0000   -0.0000    0.0000    0.0001    0.0000   -0.0000    0.0000
       92 MO     7f2-       0.0000   -0.0000   -0.0000    0.0000    0.0000   -0.0000   -0.0000   -0.0000    0.0000   -0.0000
       93 MO     8f2-       0.0000   -0.0000    0.0000   -0.0000   -0.0000   -0.0000   -0.0000   -0.0000    0.0000   -0.0000
       94 MO     9f2-       0.0000    0.0000   -0.0000    0.0000    0.0000    0.0000    0.0000    0.0000   -0.0000    0.0000
       95 MO     4f1-      -0.0000    0.0000   -0.0000    0.0000    0.0000    0.0000   -0.0002   -0.0000    0.0000    0.0000
       96 MO     5f1-       0.0000    0.0000   -0.0000    0.0000    0.0000    0.0000   -0.0002   -0.0000    0.0000    0.0000
       97 MO     6f1-      -0.0000   -0.0000    0.0000   -0.0000   -0.0000   -0.0000    0.0001    0.0000   -0.0000   -0.0000
       98 MO     7f1-       0.0000    0.0000   -0.0000    0.0000    0.0000    0.0000   -0.0001   -0.0000   -0.0000    0.0000
       99 MO     8f1-       0.0000   -0.0000   -0.0000    0.0000    0.0000    0.0000   -0.0000   -0.0000    0.0000    0.0000
      100 MO     9f1-       0.0000    0.0000    0.0000   -0.0000   -0.0000   -0.0000    0.0001    0.0000   -0.0000   -0.0000
      101 MO     4f0       -0.0000    0.0000   -0.0000   -0.0000   -0.0000   -0.0004    0.0000   -0.0000   -0.0003   -0.0000
      102 MO     5f0       -0.0000    0.0000   -0.0000   -0.0000   -0.0000   -0.0003    0.0000   -0.0000   -0.0003   -0.0000
      103 MO     6f0        0.0000   -0.0000    0.0000    0.0000    0.0000    0.0001   -0.0000    0.0000    0.0002    0.0000
      104 MO     7f0       -0.0000    0.0000   -0.0000   -0.0000   -0.0000   -0.0000    0.0000   -0.0000   -0.0001    0.0000
      105 MO     8f0        0.0000   -0.0000   -0.0000   -0.0000   -0.0000   -0.0000    0.0000   -0.0000   -0.0001    0.0000
      106 MO     9f0       -0.0000    0.0000    0.0000    0.0000    0.0000    0.0000   -0.0000    0.0000    0.0002   -0.0000
      107 MO     4f1+      -0.0000    0.0000   -0.0000   -0.0000    0.0000   -0.0000    0.0000   -0.0002    0.0000    0.0002
      108 MO     5f1+      -0.0000    0.0000   -0.0000   -0.0000    0.0000   -0.0000    0.0000   -0.0002    0.0000    0.0002
      109 MO     6f1+       0.0000   -0.0000    0.0000    0.0000   -0.0000    0.0000   -0.0000    0.0001   -0.0000   -0.0001
      110 MO     7f1+      -0.0000    0.0000   -0.0000   -0.0000    0.0000   -0.0000    0.0000   -0.0001    0.0000    0.0000
      111 MO     8f1+       0.0000   -0.0000   -0.0000   -0.0000    0.0000   -0.0000    0.0000   -0.0000    0.0000    0.0000
      112 MO     9f1+      -0.0000    0.0000    0.0000    0.0000   -0.0000    0.0000   -0.0000    0.0001   -0.0000   -0.0001
      113 MO     4f2+       0.0000   -0.0000    0.0000    0.0000   -0.0000    0.0000   -0.0000    0.0002   -0.0000    0.0012
      114 MO     5f2+       0.0000   -0.0000    0.0000    0.0000   -0.0000    0.0000   -0.0000    0.0002   -0.0000    0.0009
      115 MO     6f2+      -0.0000    0.0000   -0.0000   -0.0000    0.0000   -0.0000    0.0000   -0.0001    0.0000   -0.0003
      116 MO     7f2+       0.0000   -0.0000    0.0000    0.0000   -0.0000    0.0000   -0.0000    0.0000   -0.0000    0.0001
      117 MO     8f2+      -0.0000    0.0000   -0.0000   -0.0000   -0.0000    0.0000   -0.0000    0.0000   -0.0000    0.0001
      118 MO     9f2+       0.0000   -0.0000    0.0000    0.0000    0.0000   -0.0000    0.0000   -0.0000    0.0000   -0.0003
      119 MO     4f3+      -0.0000    0.0000    0.0000    0.0000    0.0000   -0.0003    0.0000   -0.0000    0.0002    0.0000
      120 MO     5f3+      -0.0000    0.0000   -0.0000   -0.0000    0.0000   -0.0002    0.0000   -0.0000    0.0001    0.0000
      121 MO     6f3+       0.0000   -0.0000    0.0000    0.0000   -0.0000    0.0001   -0.0000    0.0000   -0.0001   -0.0000
      122 MO     7f3+      -0.0000    0.0000   -0.0000   -0.0000    0.0000   -0.0000    0.0000   -0.0000    0.0000   -0.0000
      123 MO     8f3+       0.0000   -0.0000   -0.0000   -0.0000    0.0000   -0.0000    0.0000   -0.0000    0.0000    0.0000
      124 MO     9f3+      -0.0000    0.0000    0.0000    0.0000    0.0000    0.0000   -0.0000    0.0000   -0.0000   -0.0000
      125 MO     5g4-      -0.0000   -0.0000    0.0000   -0.0000   -0.0000    0.0000   -0.0002   -0.0000    0.0000   -0.0000
      126 MO     6g4-       0.0000   -0.0000   -0.0000    0.0000    0.0000   -0.0000    0.0002    0.0000   -0.0000    0.0000
      127 MO     7g4-      -0.0000    0.0000    0.0000   -0.0000   -0.0000    0.0000   -0.0001   -0.0000    0.0000    0.0000
      128 MO     8g4-       0.0000   -0.0000   -0.0000    0.0000    0.0000   -0.0000    0.0000    0.0000   -0.0000   -0.0000
      129 MO     5g3-       0.0000    0.0000   -0.0000    0.0000    0.0000    0.0000    0.0000    0.0000    0.0000   -0.0000
      130 MO     6g3-      -0.0000   -0.0000    0.0000   -0.0000   -0.0000   -0.0000   -0.0000   -0.0000   -0.0000    0.0000
      131 MO     7g3-       0.0000    0.0000   -0.0000    0.0000    0.0000    0.0000    0.0000    0.0000    0.0000   -0.0000
      132 MO     8g3-      -0.0000   -0.0000   -0.0000    0.0000    0.0000   -0.0000   -0.0000   -0.0000   -0.0000    0.0000
      133 MO     5g2-      -0.0000   -0.0000    0.0000   -0.0000   -0.0000   -0.0000    0.0000    0.0000   -0.0000    0.0000
      134 MO     6g2-       0.0000    0.0000   -0.0000    0.0000    0.0000    0.0000   -0.0000   -0.0000    0.0000   -0.0000
      135 MO     7g2-      -0.0000   -0.0000    0.0000   -0.0000   -0.0000   -0.0000    0.0000    0.0000   -0.0000    0.0000
      136 MO     8g2-       0.0000    0.0000   -0.0000    0.0000    0.0000    0.0000    0.0000    0.0000   -0.0000   -0.0000
      137 MO     5g1-      -0.0000   -0.0000    0.0000   -0.0000   -0.0000    0.0000   -0.0003   -0.0000    0.0000   -0.0000
      138 MO     6g1-      -0.0000    0.0000   -0.0000    0.0000    0.0000   -0.0000    0.0002    0.0000   -0.0000    0.0000
      139 MO     7g1-       0.0000   -0.0000    0.0000   -0.0000   -0.0000    0.0000   -0.0001   -0.0000    0.0000   -0.0000
      140 MO     8g1-      -0.0000    0.0000   -0.0000    0.0000    0.0000    0.0000    0.0000    0.0000   -0.0000    0.0000
      141 MO     5g0       -0.0000    0.0000    0.0000    0.0000    0.0000   -0.0000   -0.0000   -0.0000   -0.0005   -0.0000
      142 MO     6g0        0.0000   -0.0000   -0.0000   -0.0000   -0.0000    0.0000   -0.0000    0.0000    0.0003    0.0000
      143 MO     7g0       -0.0000    0.0000    0.0000    0.0000    0.0000   -0.0000   -0.0000   -0.0000   -0.0001   -0.0000
      144 MO     8g0        0.0000   -0.0000   -0.0000   -0.0000   -0.0000    0.0000   -0.0000    0.0000    0.0000    0.0000
      145 MO     5g1+       0.0000   -0.0000    0.0000    0.0000   -0.0000   -0.0000    0.0000   -0.0003    0.0000   -0.0003
      146 MO     6g1+      -0.0000    0.0000   -0.0000   -0.0000    0.0000    0.0000   -0.0000    0.0002   -0.0000    0.0002
      147 MO     7g1+       0.0000    0.0000    0.0000    0.0000   -0.0000   -0.0000    0.0000   -0.0001    0.0000   -0.0001
      148 MO     8g1+      -0.0000    0.0000   -0.0000   -0.0000    0.0000    0.0000   -0.0000    0.0000   -0.0000    0.0000
      149 MO     5g2+      -0.0000    0.0000   -0.0000   -0.0000   -0.0000   -0.0000    0.0000   -0.0000    0.0000   -0.0002
      150 MO     6g2+       0.0000   -0.0000    0.0000    0.0000    0.0000    0.0000   -0.0000    0.0000   -0.0000    0.0001
      151 MO     7g2+      -0.0000    0.0000   -0.0000   -0.0000   -0.0000   -0.0000    0.0000   -0.0000    0.0000   -0.0001
      152 MO     8g2+       0.0000   -0.0000    0.0000    0.0000    0.0000    0.0000    0.0000   -0.0000   -0.0000    0.0001
      153 MO     5g3+       0.0000   -0.0000   -0.0000   -0.0000    0.0000    0.0002   -0.0000    0.0000   -0.0003    0.0000
      154 MO     6g3+      -0.0000    0.0000    0.0000    0.0000   -0.0000   -0.0001    0.0000   -0.0000    0.0002   -0.0000
      155 MO     7g3+       0.0000   -0.0000   -0.0000   -0.0000    0.0000    0.0001   -0.0000    0.0000   -0.0001    0.0000
      156 MO     8g3+      -0.0000    0.0000    0.0000    0.0000    0.0000   -0.0000    0.0000   -0.0000    0.0000    0.0000
      157 MO     5g4+       0.0000   -0.0000    0.0000    0.0000   -0.0000    0.0000    0.0000   -0.0002    0.0000   -0.0000
      158 MO     6g4+      -0.0000    0.0000   -0.0000   -0.0000    0.0000   -0.0000   -0.0000    0.0002   -0.0000    0.0000
      159 MO     7g4+       0.0000   -0.0000    0.0000    0.0000   -0.0000    0.0000    0.0000   -0.0001    0.0000    0.0000
      160 MO     8g4+      -0.0000    0.0000   -0.0000   -0.0000    0.0000   -0.0000   -0.0000    0.0000   -0.0000   -0.0000
      161 MO     6h5-      -0.0000   -0.0000    0.0000   -0.0000   -0.0000   -0.0000    0.0000    0.0000   -0.0000    0.0000
      162 MO     7h5-       0.0000    0.0000   -0.0000    0.0000    0.0000    0.0000   -0.0000   -0.0000   -0.0000   -0.0000
      163 MO     6h4-       0.0000    0.0000   -0.0000    0.0000    0.0000    0.0000    0.0002    0.0000   -0.0000    0.0000
      164 MO     7h4-       0.0000    0.0000    0.0000   -0.0000   -0.0000    0.0000   -0.0001   -0.0000    0.0000    0.0000
      165 MO     6h3-      -0.0000   -0.0000    0.0000   -0.0000   -0.0000   -0.0000   -0.0000    0.0000    0.0000   -0.0000
      166 MO     7h3-       0.0000    0.0000   -0.0000    0.0000    0.0000    0.0000    0.0000   -0.0000    0.0000    0.0000
      167 MO     6h2-       0.0000    0.0000   -0.0000    0.0000    0.0000    0.0000    0.0001    0.0000   -0.0000    0.0000
      168 MO     7h2-       0.0000    0.0000   -0.0000    0.0000   -0.0000   -0.0000   -0.0000   -0.0000    0.0000   -0.0000
      169 MO     6h1-      -0.0000   -0.0000    0.0000   -0.0000   -0.0000   -0.0000    0.0000    0.0000   -0.0000   -0.0000
      170 MO     7h1-       0.0000    0.0000   -0.0000    0.0000    0.0000    0.0000   -0.0000   -0.0000   -0.0000    0.0000
      171 MO     6h0       -0.0000    0.0000   -0.0000   -0.0000   -0.0000   -0.0000   -0.0000   -0.0000   -0.0001   -0.0000
      172 MO     7h0        0.0000   -0.0000    0.0000    0.0000    0.0000    0.0000    0.0000    0.0000    0.0000    0.0000
      173 MO     6h1+       0.0000    0.0000    0.0000    0.0000   -0.0000    0.0000   -0.0000    0.0000   -0.0000   -0.0000
      174 MO     7h1+      -0.0000    0.0000   -0.0000   -0.0000    0.0000   -0.0000    0.0000   -0.0000    0.0000    0.0000
      175 MO     6h2+      -0.0000   -0.0000    0.0000    0.0000    0.0000   -0.0000    0.0000   -0.0001   -0.0000   -0.0003
      176 MO     7h2+       0.0000   -0.0000    0.0000    0.0000   -0.0000    0.0000   -0.0000    0.0000    0.0000    0.0001
      177 MO     6h3+      -0.0000    0.0000   -0.0000   -0.0000   -0.0000   -0.0001    0.0000   -0.0000    0.0001   -0.0000
      178 MO     7h3+       0.0000   -0.0000    0.0000    0.0000    0.0000    0.0000   -0.0000    0.0000   -0.0001    0.0000
      179 MO     6h4+      -0.0000    0.0000   -0.0000   -0.0000    0.0000   -0.0000   -0.0000    0.0002   -0.0000    0.0000
      180 MO     7h4+       0.0000    0.0000    0.0000    0.0000    0.0000    0.0000    0.0000   -0.0001    0.0000    0.0000
      181 MO     6h5+      -0.0000    0.0000   -0.0000   -0.0000    0.0000   -0.0000    0.0000   -0.0000    0.0000   -0.0004
      182 MO     7h5+       0.0000   -0.0000    0.0000    0.0000   -0.0000    0.0000   -0.0000    0.0000   -0.0000    0.0002

          Orbital           11        12        13        14        15        16        17        18        19        20    
          Energy          -10.1169  -10.1100  -10.1100  -10.1077   -3.6182   -2.4350   -2.4350   -2.3304   -0.4810   -0.4810
          Occ. No.          2.0000    2.0000    2.0000    2.0000    2.0000    2.0000    2.0000    2.0000    0.0000    0.0000

        1 MO     1s        -0.0000   -0.0000   -0.0000    0.0000    0.0000   -0.0000   -0.0000   -0.0000   -0.0000   -0.0000
        2 MO     2s         0.0000   -0.0000   -0.0000    0.0000    0.0000   -0.0000    0.0000    0.0000   -0.0000   -0.0000
        3 MO     3s         0.0000   -0.0000   -0.0000    0.0007   -0.0019    0.0000   -0.0000   -0.0005    0.0000    0.0000
        4 MO     4s        -0.0000    0.0000    0.0000   -0.0013   -0.9957    0.0000   -0.0000   -0.0561    0.0000    0.0000
        5 MO     5s         0.0000   -0.0000   -0.0000    0.0001    0.0229   -0.0000    0.0000    0.0095   -0.0000   -0.0000
        6 MO     6s        -0.0000    0.0000    0.0000   -0.0001   -0.0216   -0.0000   -0.0000   -0.0089    0.0000    0.0000
        7 MO     7s         0.0000   -0.0000   -0.0000    0.0001    0.0327    0.0000    0.0000    0.0136   -0.0000   -0.0000
        8 MO     8s         0.0000   -0.0000   -0.0000    0.0000   -0.0030    0.0000    0.0000   -0.0010   -0.0000   -0.0000
        9 MO     9s        -0.0000    0.0000    0.0000   -0.0000   -0.0032    0.0000   -0.0000   -0.0016   -0.0000   -0.0000
       10 MO    10s         0.0000    0.0000    0.0000   -0.0000   -0.0001   -0.0000   -0.0000   -0.0001   -0.0000   -0.0000
       11 MO     2px       -0.0000   -0.0000   -0.0000    0.0000   -0.0000   -0.0000   -0.0001    0.0000   -0.0000   -0.0000
       12 MO     3px        0.0000   -0.0000   -0.0023   -0.0000    0.0000    0.0000    0.0023   -0.0000    0.0000    0.0000
       13 MO     4px       -0.0000    0.0000    0.0019    0.0000   -0.0000    0.0000    0.9912   -0.0000    0.0055    0.0000
       14 MO     5px        0.0000   -0.0000   -0.0002   -0.0000   -0.0000   -0.0000   -0.0382   -0.0000    0.0092    0.0000
       15 MO     6px       -0.0000    0.0000    0.0002    0.0000    0.0000    0.0000    0.0425    0.0000    0.0036    0.0000
       16 MO     7px       -0.0000    0.0000    0.0001    0.0000   -0.0000   -0.0000   -0.0074    0.0000   -0.0023   -0.0000
       17 MO     8px        0.0000   -0.0000   -0.0002   -0.0000   -0.0000   -0.0000   -0.0012   -0.0000   -0.0011   -0.0000
       18 MO     9px       -0.0000    0.0000    0.0001    0.0000    0.0000    0.0000    0.0012   -0.0000    0.0001    0.0000
       19 MO    10px        0.0000   -0.0000   -0.0000   -0.0000    0.0000    0.0000    0.0003    0.0000    0.0001    0.0000
       20 MO     2py        0.0000   -0.0000    0.0000    0.0000   -0.0000   -0.0001    0.0000    0.0000   -0.0000    0.0000
       21 MO     3py       -0.0003   -0.0023    0.0000   -0.0000    0.0000    0.0023   -0.0000    0.0000    0.0000   -0.0000
       22 MO     4py        0.0007    0.0019   -0.0000    0.0000    0.0000    0.9912   -0.0000   -0.0000    0.0000   -0.0055
       23 MO     5py       -0.0001   -0.0002    0.0000   -0.0000   -0.0000   -0.0382    0.0000    0.0000    0.0000   -0.0092
       24 MO     6py        0.0000    0.0002   -0.0000    0.0000    0.0000    0.0425   -0.0000    0.0000    0.0000   -0.0036
       25 MO     7py        0.0001    0.0001   -0.0000    0.0000   -0.0000   -0.0074    0.0000    0.0000   -0.0000    0.0023
       26 MO     8py       -0.0001   -0.0002    0.0000   -0.0000    0.0000   -0.0012    0.0000    0.0000   -0.0000    0.0011
       27 MO     9py        0.0001    0.0001   -0.0000    0.0000   -0.0000    0.0012   -0.0000   -0.0000    0.0000   -0.0001
       28 MO    10py       -0.0000   -0.0000    0.0000   -0.0000    0.0000    0.0003   -0.0000   -0.0000    0.0000   -0.0001
       29 MO     2pz       -0.0000    0.0000   -0.0000   -0.0000   -0.0000    0.0000   -0.0000   -0.0001    0.0000   -0.0000
       30 MO     3pz       -0.0000    0.0000    0.0000   -0.0004    0.0005    0.0000    0.0000    0.0031   -0.0000    0.0000
       31 MO     4pz        0.0000    0.0000   -0.0000   -0.0009   -0.0555    0.0000    0.0000    0.9921   -0.0000   -0.0000
       32 MO     5pz        0.0000   -0.0000    0.0000    0.0000    0.0018   -0.0000   -0.0000   -0.0423   -0.0000   -0.0000
       33 MO     6pz        0.0000   -0.0000   -0.0000    0.0002    0.0003    0.0000    0.0000    0.0533    0.0000   -0.0000
       34 MO     7pz       -0.0000    0.0000    0.0000   -0.0003   -0.0022    0.0000   -0.0000   -0.0139    0.0000   -0.0000
       35 MO     8pz       -0.0000   -0.0000    0.0000    0.0003    0.0011   -0.0000   -0.0000   -0.0002    0.0000   -0.0000
       36 MO     9pz        0.0000    0.0000   -0.0000   -0.0001    0.0006   -0.0000    0.0000    0.0032    0.0000   -0.0000
       37 MO    10pz        0.0000   -0.0000   -0.0000    0.0000    0.0001   -0.0000    0.0000    0.0007    0.0000    0.0000
       38 MO     3d2-       0.9811    0.1935   -0.0000    0.0000    0.0000   -0.0008    0.0000   -0.0000   -0.0000    0.0016
       39 MO     4d2-      -0.0022   -0.0010    0.0000   -0.0000    0.0000    0.0583   -0.0000   -0.0000   -0.0000    0.8627
       40 MO     5d2-       0.0016    0.0007   -0.0000    0.0000   -0.0000   -0.0215    0.0000   -0.0000   -0.0000    0.0271
       41 MO     6d2-      -0.0008   -0.0003    0.0000   -0.0000    0.0000   -0.0025    0.0000   -0.0000   -0.0000    0.0121
       42 MO     7d2-       0.0004    0.0001   -0.0000    0.0000    0.0000    0.0055   -0.0000   -0.0000    0.0000   -0.0144
       43 MO     8d2-      -0.0004   -0.0000    0.0000   -0.0000   -0.0000   -0.0025    0.0000    0.0000    0.0000   -0.0023
       44 MO     9d2-       0.0003    0.0000   -0.0000    0.0000   -0.0000   -0.0007    0.0000    0.0000   -0.0000    0.0026
       45 MO    10d2-      -0.0004   -0.0001    0.0000   -0.0000   -0.0000    0.0005   -0.0000    0.0000   -0.0000    0.0023
       46 MO    11d2-       0.0001    0.0000   -0.0000   -0.0000    0.0000    0.0002   -0.0000    0.0000    0.0000   -0.0000
       47 MO     3d1-      -0.1935    0.9811   -0.0000    0.0000    0.0000   -0.0013    0.0000   -0.0000    0.0000   -0.0010
       48 MO     4d1-       0.0000   -0.0030    0.0000   -0.0000    0.0000    0.0874   -0.0000   -0.0000    0.0000   -0.4956
       49 MO     5d1-      -0.0000    0.0022   -0.0000    0.0000   -0.0000   -0.0323    0.0000    0.0000    0.0000   -0.0103
       50 MO     6d1-       0.0000   -0.0011    0.0000   -0.0000    0.0000   -0.0032    0.0000   -0.0000    0.0000   -0.0051
       51 MO     7d1-      -0.0001    0.0006   -0.0000    0.0000   -0.0000    0.0075   -0.0000    0.0000   -0.0000    0.0067
       52 MO     8d1-       0.0001   -0.0004    0.0000   -0.0000    0.0000   -0.0033    0.0000   -0.0000   -0.0000    0.0014
       53 MO     9d1-      -0.0001    0.0003   -0.0000    0.0000   -0.0000   -0.0010    0.0000    0.0000    0.0000   -0.0009
       54 MO    10d1-       0.0001   -0.0005    0.0000   -0.0000    0.0000    0.0006   -0.0000   -0.0000    0.0000   -0.0012
       55 MO    11d1-      -0.0000    0.0001   -0.0000    0.0000   -0.0000    0.0003   -0.0000   -0.0000    0.0000   -0.0000
       56 MO     3d0        0.0000   -0.0000   -0.0000    1.0000   -0.0013    0.0000    0.0000    0.0005    0.0000    0.0000
       57 MO     4d0       -0.0000    0.0000    0.0000   -0.0032    0.0233   -0.0000   -0.0000   -0.0627    0.0000    0.0000
       58 MO     5d0        0.0000   -0.0000   -0.0000    0.0024   -0.0104    0.0000    0.0000    0.0227    0.0000    0.0000
       59 MO     6d0       -0.0000    0.0000    0.0000   -0.0012   -0.0001   -0.0000    0.0000    0.0036    0.0000    0.0000
       60 MO     7d0        0.0000   -0.0000   -0.0000    0.0006    0.0026   -0.0000   -0.0000   -0.0067   -0.0000   -0.0000
       61 MO     8d0       -0.0000    0.0000    0.0000   -0.0004   -0.0018    0.0000    0.0000    0.0029   -0.0000    0.0000
       62 MO     9d0        0.0000   -0.0000   -0.0000    0.0004    0.0001   -0.0000    0.0000    0.0010    0.0000    0.0000
       63 MO    10d0       -0.0000    0.0000    0.0000   -0.0005    0.0005    0.0000    0.0000   -0.0007    0.0000    0.0000
       64 MO    11d0        0.0000   -0.0000   -0.0000    0.0001    0.0001   -0.0000   -0.0000   -0.0003   -0.0000    0.0000
       65 MO     3d1+       0.0000    0.0000    0.9811   -0.0000    0.0000   -0.0000   -0.0013    0.0000    0.0010    0.0000
       66 MO     4d1+      -0.0000   -0.0000   -0.0030   -0.0000   -0.0000    0.0000    0.0874   -0.0000    0.4956    0.0000
       67 MO     5d1+       0.0000    0.0000    0.0022    0.0000    0.0000   -0.0000   -0.0323    0.0000    0.0103    0.0000
       68 MO     6d1+      -0.0000   -0.0000   -0.0011    0.0000   -0.0000   -0.0000   -0.0032   -0.0000    0.0051    0.0000
       69 MO     7d1+       0.0000    0.0000    0.0006   -0.0000    0.0000    0.0000    0.0075    0.0000   -0.0067   -0.0000
       70 MO     8d1+      -0.0000   -0.0000   -0.0004    0.0000    0.0000   -0.0000   -0.0033    0.0000   -0.0014   -0.0000
       71 MO     9d1+       0.0000    0.0000    0.0003   -0.0000   -0.0000   -0.0000   -0.0010   -0.0000    0.0009    0.0000
       72 MO    10d1+      -0.0000   -0.0000   -0.0005    0.0000   -0.0000    0.0000    0.0006   -0.0000    0.0012    0.0000
       73 MO    11d1+       0.0000    0.0000    0.0001   -0.0000   -0.0000    0.0000    0.0003   -0.0000    0.0000    0.0000
       74 MO     3d2+       0.0000   -0.0000   -0.1935   -0.0000   -0.0000    0.0000    0.0008   -0.0000    0.0016    0.0000
       75 MO     4d2+      -0.0000    0.0000    0.0010    0.0000    0.0000   -0.0000   -0.0583    0.0000    0.8627    0.0000
       76 MO     5d2+       0.0000   -0.0000   -0.0007   -0.0000   -0.0000    0.0000    0.0215   -0.0000    0.0271    0.0000
       77 MO     6d2+      -0.0000    0.0000    0.0003    0.0000    0.0000    0.0000    0.0025    0.0000    0.0121    0.0000
       78 MO     7d2+       0.0000   -0.0000   -0.0001   -0.0000    0.0000   -0.0000   -0.0055    0.0000   -0.0144   -0.0000
       79 MO     8d2+      -0.0000    0.0000    0.0000    0.0000   -0.0000    0.0000    0.0025   -0.0000   -0.0023   -0.0000
       80 MO     9d2+       0.0000   -0.0000   -0.0000   -0.0000    0.0000    0.0000    0.0007    0.0000    0.0026    0.0000
       81 MO    10d2+      -0.0000    0.0000    0.0001    0.0000    0.0000   -0.0000   -0.0005    0.0000    0.0023    0.0000
       82 MO    11d2+       0.0000   -0.0000   -0.0000   -0.0000    0.0000   -0.0000   -0.0002    0.0000   -0.0000   -0.0000
       83 MO     4f3-       0.0000    0.0000   -0.0000   -0.0000    0.0000   -0.0000    0.0000    0.0000   -0.0000    0.0000
       84 MO     5f3-       0.0000    0.0000   -0.0000   -0.0000    0.0000   -0.0000    0.0000   -0.0000    0.0000   -0.0000
       85 MO     6f3-       0.0000   -0.0000   -0.0000    0.0000    0.0000   -0.0000    0.0000   -0.0000    0.0000   -0.0000
       86 MO     7f3-      -0.0000   -0.0000    0.0000   -0.0000   -0.0000    0.0000   -0.0000   -0.0000    0.0000   -0.0000
       87 MO     8f3-      -0.0000   -0.0000   -0.0000   -0.0000   -0.0000   -0.0000   -0.0000    0.0000    0.0000    0.0000
       88 MO     9f3-      -0.0000   -0.0000   -0.0000    0.0000    0.0000    0.0000   -0.0000   -0.0000    0.0000    0.0000
       89 MO     4f2-       0.0012    0.0009   -0.0000    0.0000   -0.0000   -0.0198    0.0000    0.0000   -0.0000    0.0775
       90 MO     5f2-       0.0009    0.0006   -0.0000    0.0000   -0.0000   -0.0030    0.0000    0.0000    0.0000   -0.0268
       91 MO     6f2-      -0.0003   -0.0002    0.0000   -0.0000   -0.0000   -0.0041    0.0000    0.0000    0.0000   -0.0045
       92 MO     7f2-       0.0001   -0.0000    0.0000   -0.0000    0.0000    0.0019   -0.0000   -0.0000    0.0000   -0.0016
       93 MO     8f2-       0.0001   -0.0000    0.0000   -0.0000   -0.0000   -0.0002    0.0000   -0.0000   -0.0000    0.0006
       94 MO     9f2-      -0.0003   -0.0001    0.0000   -0.0000    0.0000    0.0004   -0.0000    0.0000    0.0000   -0.0006
       95 MO     4f1-      -0.0002    0.0004   -0.0000    0.0000    0.0000   -0.0140    0.0000    0.0000    0.0000   -0.0285
       96 MO     5f1-      -0.0002    0.0004   -0.0000    0.0000   -0.0000   -0.0023    0.0000    0.0000   -0.0000    0.0112
       97 MO     6f1-       0.0001   -0.0003    0.0000   -0.0000    0.0000   -0.0019    0.0000    0.0000   -0.0000    0.0032
       98 MO     7f1-      -0.0000    0.0002   -0.0000    0.0000   -0.0000    0.0006   -0.0000   -0.0000   -0.0000    0.0008
       99 MO     8f1-      -0.0000    0.0001   -0.0000    0.0000   -0.0000   -0.0002    0.0000   -0.0000    0.0000   -0.0001
      100 MO     9f1-       0.0001   -0.0003    0.0000   -0.0000    0.0000    0.0003   -0.0000    0.0000   -0.0000    0.0002
      101 MO     4f0       -0.0000    0.0000    0.0000   -0.0003    0.0396   -0.0000    0.0000   -0.0190   -0.0000   -0.0000
      102 MO     5f0       -0.0000    0.0000    0.0000   -0.0000    0.0097   -0.0000   -0.0000   -0.0025   -0.0000   -0.0000
      103 MO     6f0       -0.0000    0.0000   -0.0000   -0.0002    0.0063    0.0000    0.0000   -0.0027   -0.0000   -0.0000
      104 MO     7f0        0.0000   -0.0000   -0.0000    0.0002   -0.0043    0.0000    0.0000    0.0007    0.0000    0.0000
      105 MO     8f0        0.0000   -0.0000   -0.0000    0.0001   -0.0003    0.0000    0.0000   -0.0004   -0.0000   -0.0000
      106 MO     9f0       -0.0000    0.0000    0.0000   -0.0003   -0.0007    0.0000    0.0000    0.0003    0.0000    0.0000
      107 MO     4f1+       0.0000    0.0000    0.0004   -0.0000    0.0000   -0.0000   -0.0140    0.0000    0.0285    0.0000
      108 MO     5f1+       0.0000    0.0000    0.0004   -0.0000    0.0000   -0.0000   -0.0023    0.0000   -0.0112   -0.0000
      109 MO     6f1+      -0.0000   -0.0000   -0.0003    0.0000    0.0000   -0.0000   -0.0019   -0.0000   -0.0032   -0.0000
      110 MO     7f1+       0.0000    0.0000    0.0002   -0.0000   -0.0000    0.0000    0.0006   -0.0000   -0.0008   -0.0000
      111 MO     8f1+       0.0000    0.0000    0.0001   -0.0000   -0.0000   -0.0000   -0.0002   -0.0000    0.0001    0.0000
      112 MO     9f1+      -0.0000   -0.0000   -0.0003    0.0000   -0.0000    0.0000    0.0003   -0.0000   -0.0002   -0.0000
      113 MO     4f2+       0.0000   -0.0000   -0.0009   -0.0000   -0.0000    0.0000    0.0198   -0.0000    0.0775    0.0000
      114 MO     5f2+       0.0000   -0.0000   -0.0006   -0.0000   -0.0000    0.0000    0.0030   -0.0000   -0.0268   -0.0000
      115 MO     6f2+      -0.0000    0.0000    0.0002    0.0000   -0.0000    0.0000    0.0041   -0.0000   -0.0045   -0.0000
      116 MO     7f2+       0.0000    0.0000    0.0000   -0.0000    0.0000   -0.0000   -0.0019    0.0000   -0.0016   -0.0000
      117 MO     8f2+       0.0000    0.0000    0.0000   -0.0000    0.0000    0.0000    0.0002    0.0000    0.0006    0.0000
      118 MO     9f2+      -0.0000    0.0000    0.0001    0.0000    0.0000   -0.0000   -0.0004    0.0000   -0.0006   -0.0000
      119 MO     4f3+       0.0000   -0.0000    0.0000    0.0005    0.0256   -0.0000   -0.0000    0.0226    0.0000    0.0000
      120 MO     5f3+       0.0000   -0.0000    0.0000    0.0003    0.0063   -0.0000   -0.0000    0.0033   -0.0000   -0.0000
      121 MO     6f3+      -0.0000    0.0000   -0.0000   -0.0001    0.0040    0.0000    0.0000    0.0044   -0.0000   -0.0000
      122 MO     7f3+       0.0000    0.0000    0.0000   -0.0000   -0.0028    0.0000    0.0000   -0.0019   -0.0000   -0.0000
      123 MO     8f3+       0.0000    0.0000   -0.0000   -0.0000   -0.0002    0.0000    0.0000    0.0002    0.0000    0.0000
      124 MO     9f3+      -0.0000    0.0000   -0.0000   -0.0000   -0.0005    0.0000    0.0000   -0.0005    0.0000    0.0000
      125 MO     5g4-       0.0000    0.0003   -0.0000    0.0000   -0.0000   -0.0168    0.0000    0.0000    0.0000   -0.0039
      126 MO     6g4-      -0.0000   -0.0002    0.0000   -0.0000    0.0000   -0.0010    0.0000    0.0000    0.0000   -0.0021
      127 MO     7g4-      -0.0000    0.0000   -0.0000    0.0000    0.0000    0.0034   -0.0000   -0.0000    0.0000   -0.0001
      128 MO     8g4-       0.0000    0.0000   -0.0000    0.0000   -0.0000    0.0001   -0.0000    0.0000   -0.0000    0.0001
      129 MO     5g3-       0.0000   -0.0000    0.0000   -0.0000    0.0000    0.0000   -0.0000    0.0000   -0.0000    0.0000
      130 MO     6g3-      -0.0000    0.0000   -0.0000    0.0000   -0.0000   -0.0000    0.0000   -0.0000    0.0000   -0.0000
      131 MO     7g3-       0.0000   -0.0000    0.0000   -0.0000    0.0000   -0.0000    0.0000    0.0000    0.0000   -0.0000
      132 MO     8g3-      -0.0000    0.0000   -0.0000    0.0000   -0.0000    0.0000   -0.0000    0.0000   -0.0000    0.0000
      133 MO     5g2-      -0.0002   -0.0003    0.0000   -0.0000    0.0000    0.0014   -0.0000   -0.0000    0.0000   -0.0042
      134 MO     6g2-       0.0001    0.0002   -0.0000    0.0000   -0.0000    0.0000   -0.0000    0.0000    0.0000   -0.0024
      135 MO     7g2-      -0.0001   -0.0001    0.0000   -0.0000    0.0000   -0.0006    0.0000   -0.0000    0.0000   -0.0004
      136 MO     8g2-       0.0001    0.0000   -0.0000    0.0000   -0.0000    0.0001   -0.0000    0.0000    0.0000   -0.0000
      137 MO     5g1-       0.0003   -0.0002    0.0000   -0.0000   -0.0000   -0.0210    0.0000    0.0000   -0.0000    0.0177
      138 MO     6g1-      -0.0002    0.0002   -0.0000    0.0000    0.0000   -0.0014    0.0000   -0.0000   -0.0000    0.0089
      139 MO     7g1-       0.0001   -0.0001    0.0000   -0.0000    0.0000    0.0041   -0.0000   -0.0000    0.0000   -0.0002
      140 MO     8g1-      -0.0000    0.0001   -0.0000    0.0000   -0.0000    0.0002   -0.0000   -0.0000    0.0000   -0.0005
      141 MO     5g0       -0.0000    0.0000   -0.0000   -0.0007    0.0023   -0.0000    0.0000   -0.0356   -0.0000   -0.0000
      142 MO     6g0        0.0000   -0.0000    0.0000    0.0004   -0.0000    0.0000   -0.0000   -0.0025    0.0000   -0.0000
      143 MO     7g0       -0.0000    0.0000   -0.0000   -0.0002   -0.0005    0.0000    0.0000    0.0077    0.0000    0.0000
      144 MO     8g0        0.0000   -0.0000    0.0000    0.0001    0.0001   -0.0000    0.0000    0.0002    0.0000   -0.0000
      145 MO     5g1+      -0.0000   -0.0000   -0.0002    0.0000   -0.0000   -0.0000   -0.0210   -0.0000   -0.0177   -0.0000
      146 MO     6g1+       0.0000    0.0000    0.0002   -0.0000   -0.0000   -0.0000   -0.0014   -0.0000   -0.0089   -0.0000
      147 MO     7g1+      -0.0000   -0.0000   -0.0001    0.0000    0.0000    0.0000    0.0041    0.0000    0.0002    0.0000
      148 MO     8g1+       0.0000    0.0000    0.0001   -0.0000    0.0000    0.0000    0.0002    0.0000    0.0005    0.0000
      149 MO     5g2+      -0.0000    0.0000    0.0003   -0.0000    0.0000   -0.0000   -0.0014    0.0000   -0.0042   -0.0000
      150 MO     6g2+       0.0000   -0.0000   -0.0002    0.0000   -0.0000   -0.0000   -0.0000   -0.0000   -0.0024   -0.0000
      151 MO     7g2+      -0.0000    0.0000    0.0001   -0.0000   -0.0000    0.0000    0.0006   -0.0000   -0.0004   -0.0000
      152 MO     8g2+       0.0000   -0.0000   -0.0000    0.0000    0.0000   -0.0000   -0.0001    0.0000   -0.0000   -0.0000
      153 MO     5g3+       0.0000    0.0000   -0.0000   -0.0001   -0.0151    0.0000    0.0000   -0.0220   -0.0000   -0.0000
      154 MO     6g3+      -0.0000   -0.0000    0.0000    0.0001    0.0008   -0.0000   -0.0000   -0.0014   -0.0000   -0.0000
      155 MO     7g3+       0.0000    0.0000   -0.0000   -0.0000    0.0032    0.0000    0.0000    0.0049   -0.0000   -0.0000
      156 MO     8g3+       0.0000    0.0000    0.0000   -0.0000   -0.0008    0.0000    0.0000   -0.0000    0.0000    0.0000
      157 MO     5g4+      -0.0000    0.0000    0.0003   -0.0000   -0.0000   -0.0000   -0.0168   -0.0000    0.0039    0.0000
      158 MO     6g4+       0.0000   -0.0000   -0.0002    0.0000   -0.0000   -0.0000   -0.0010   -0.0000    0.0021    0.0000
      159 MO     7g4+       0.0000    0.0000    0.0000   -0.0000    0.0000    0.0000    0.0034    0.0000    0.0001    0.0000
      160 MO     8g4+      -0.0000    0.0000    0.0000    0.0000    0.0000    0.0000    0.0001    0.0000   -0.0001   -0.0000
      161 MO     6h5-      -0.0004   -0.0001    0.0000   -0.0000   -0.0000    0.0022   -0.0000    0.0000    0.0000   -0.0141
      162 MO     7h5-       0.0002    0.0001   -0.0000    0.0000    0.0000    0.0006   -0.0000   -0.0000    0.0000   -0.0075
      163 MO     6h4-      -0.0000   -0.0004    0.0000   -0.0000    0.0000    0.0108   -0.0000   -0.0000   -0.0000    0.0054
      164 MO     7h4-      -0.0000    0.0002   -0.0000    0.0000   -0.0000    0.0023   -0.0000   -0.0000   -0.0000    0.0029
      165 MO     6h3-      -0.0000    0.0000   -0.0000    0.0000   -0.0000   -0.0000    0.0000    0.0000    0.0000   -0.0000
      166 MO     7h3-       0.0000   -0.0000   -0.0000   -0.0000    0.0000   -0.0000    0.0000   -0.0000    0.0000   -0.0000
      167 MO     6h2-      -0.0003   -0.0001    0.0000   -0.0000    0.0000    0.0034   -0.0000   -0.0000    0.0000   -0.0112
      168 MO     7h2-       0.0001    0.0001   -0.0000    0.0000   -0.0000    0.0007   -0.0000   -0.0000    0.0000   -0.0060
      169 MO     6h1-       0.0000   -0.0006    0.0000   -0.0000   -0.0000    0.0023   -0.0000    0.0000   -0.0000    0.0098
      170 MO     7h1-      -0.0000    0.0003   -0.0000    0.0000    0.0000    0.0006   -0.0000   -0.0000   -0.0000    0.0053
      171 MO     6h0       -0.0000    0.0000    0.0000   -0.0008    0.0030    0.0000   -0.0000   -0.0069   -0.0000   -0.0000
      172 MO     7h0        0.0000   -0.0000   -0.0000    0.0003    0.0004   -0.0000   -0.0000   -0.0018   -0.0000   -0.0000
      173 MO     6h1+      -0.0000   -0.0000   -0.0006   -0.0000   -0.0000    0.0000    0.0023    0.0000   -0.0098   -0.0000
      174 MO     7h1+       0.0000    0.0000    0.0003    0.0000    0.0000    0.0000    0.0006    0.0000   -0.0053   -0.0000
      175 MO     6h2+      -0.0000    0.0000    0.0001    0.0000    0.0000   -0.0000   -0.0034   -0.0000   -0.0112   -0.0000
      176 MO     7h2+       0.0000   -0.0000   -0.0001   -0.0000   -0.0000   -0.0000   -0.0007   -0.0000   -0.0060   -0.0000
      177 MO     6h3+      -0.0000    0.0000    0.0000   -0.0002    0.0048   -0.0000   -0.0000    0.0115   -0.0000   -0.0000
      178 MO     7h3+       0.0000   -0.0000   -0.0000    0.0001    0.0006    0.0000    0.0000    0.0025   -0.0000   -0.0000
      179 MO     6h4+       0.0000   -0.0000   -0.0004    0.0000    0.0000    0.0000    0.0108    0.0000   -0.0054   -0.0000
      180 MO     7h4+       0.0000    0.0000    0.0002   -0.0000    0.0000    0.0000    0.0023    0.0000   -0.0029   -0.0000
      181 MO     6h5+      -0.0000    0.0000    0.0001    0.0000    0.0000   -0.0000   -0.0022    0.0000   -0.0141   -0.0000
      182 MO     7h5+       0.0000   -0.0000   -0.0001   -0.0000   -0.0000   -0.0000   -0.0006   -0.0000   -0.0075   -0.0000

          Orbital           21        22        23        24        25        26        27        28        29        30    
          Energy           -0.4589   -0.3710   -0.3710   -0.3455   -0.3078   -0.3078   -0.3041   -0.2030   -0.1863   -0.1863
          Occ. No.          0.0000    0.0000    0.0000    0.0000    0.0000    0.0000    0.0000    0.0000    0.0000    0.0000

        1 MO     1s        -0.0000    0.0000   -0.0000   -0.0000    0.0000    0.0000   -0.0000    0.0000   -0.0000    0.0000
        2 MO     2s        -0.0000   -0.0000    0.0000   -0.0000   -0.0000    0.0000   -0.0000    0.0000    0.0000    0.0000
        3 MO     3s         0.0003   -0.0000   -0.0000    0.0001   -0.0000   -0.0000    0.0001   -0.0001   -0.0000   -0.0000
        4 MO     4s        -0.0178   -0.0000   -0.0000    0.0195    0.0000    0.0000   -0.0038    0.0110   -0.0000   -0.0000
        5 MO     5s        -0.9306    0.0000   -0.0000    0.2472    0.0000    0.0000   -0.1899   -0.1624    0.0000    0.0000
        6 MO     6s         0.1688    0.0000    0.0000    0.0495    0.0000    0.0000   -0.0123   -0.9494    0.0000    0.0000
        7 MO     7s         0.0196   -0.0000    0.0000   -0.0410   -0.0000   -0.0000    0.0089   -0.1458    0.0000    0.0000
        8 MO     8s         0.0023   -0.0000    0.0000   -0.0253   -0.0000   -0.0000    0.0104   -0.0496    0.0000    0.0000
        9 MO     9s        -0.0063   -0.0000    0.0000   -0.0058   -0.0000   -0.0000    0.0034   -0.0029    0.0000    0.0000
       10 MO    10s        -0.0015   -0.0000    0.0000   -0.0003   -0.0000   -0.0000    0.0002    0.0011    0.0000    0.0000
       11 MO     2px       -0.0000   -0.0000    0.0000    0.0000   -0.0000   -0.0000   -0.0000    0.0000    0.0000    0.0000
       12 MO     3px        0.0000    0.0000   -0.0007   -0.0000    0.0000    0.0002    0.0000   -0.0000   -0.0000   -0.0000
       13 MO     4px       -0.0000    0.0000   -0.0473   -0.0000    0.0000    0.0747    0.0000    0.0000   -0.0000   -0.0049
       14 MO     5px       -0.0000   -0.0000    0.6041    0.0000    0.0000    0.7698    0.0000    0.0000   -0.0000   -0.0184
       15 MO     6px        0.0000   -0.0000    0.0114    0.0000    0.0000    0.2163    0.0000   -0.0000   -0.0000   -0.0017
       16 MO     7px        0.0000    0.0000   -0.0125    0.0000    0.0000    0.0724    0.0000   -0.0000    0.0000    0.0052
       17 MO     8px        0.0000    0.0000   -0.0170   -0.0000   -0.0000   -0.0048   -0.0000   -0.0000    0.0000    0.0034
       18 MO     9px        0.0000    0.0000   -0.0105   -0.0000   -0.0000   -0.0074   -0.0000   -0.0000    0.0000    0.0012
       19 MO    10px        0.0000    0.0000   -0.0018   -0.0000   -0.0000   -0.0013   -0.0000   -0.0000    0.0000    0.0002
       20 MO     2py       -0.0000    0.0000    0.0000    0.0000    0.0000   -0.0000   -0.0000   -0.0000   -0.0000    0.0000
       21 MO     3py        0.0000   -0.0007   -0.0000   -0.0000   -0.0002    0.0000    0.0000   -0.0000    0.0000   -0.0000
       22 MO     4py       -0.0000   -0.0473   -0.0000   -0.0000   -0.0747    0.0000   -0.0000   -0.0000    0.0049   -0.0000
       23 MO     5py        0.0000    0.6041    0.0000   -0.0000   -0.7698    0.0000   -0.0000    0.0000    0.0184   -0.0000
       24 MO     6py        0.0000    0.0114    0.0000   -0.0000   -0.2163    0.0000    0.0000   -0.0000    0.0017   -0.0000
       25 MO     7py       -0.0000   -0.0125   -0.0000    0.0000   -0.0724    0.0000    0.0000    0.0000   -0.0052    0.0000
       26 MO     8py        0.0000   -0.0170   -0.0000    0.0000    0.0048   -0.0000    0.0000   -0.0000   -0.0034    0.0000
       27 MO     9py       -0.0000   -0.0105   -0.0000    0.0000    0.0074   -0.0000    0.0000    0.0000   -0.0012    0.0000
       28 MO    10py        0.0000   -0.0018   -0.0000    0.0000    0.0013   -0.0000    0.0000    0.0000   -0.0002    0.0000
       29 MO     2pz       -0.0000   -0.0000    0.0000   -0.0000    0.0000   -0.0000    0.0000    0.0000    0.0000   -0.0000
       30 MO     3pz        0.0001   -0.0000    0.0000    0.0003    0.0000    0.0000   -0.0003   -0.0000    0.0000    0.0000
       31 MO     4pz        0.0131   -0.0000    0.0000    0.0492   -0.0000   -0.0000    0.0289    0.0006    0.0000    0.0000
       32 MO     5pz       -0.1907   -0.0000    0.0000    0.0349   -0.0000   -0.0000    0.9478   -0.0161   -0.0000   -0.0000
       33 MO     6pz        0.0165   -0.0000   -0.0000    0.0512   -0.0000   -0.0000    0.2267   -0.0929   -0.0000   -0.0000
       34 MO     7pz        0.0181   -0.0000   -0.0000    0.0031   -0.0000   -0.0000    0.0946   -0.0927    0.0000    0.0000
       35 MO     8pz        0.0071    0.0000    0.0000   -0.0044    0.0000    0.0000   -0.0011   -0.0388    0.0000    0.0000
       36 MO     9pz        0.0030    0.0000    0.0000   -0.0001    0.0000    0.0000   -0.0091   -0.0140    0.0000    0.0000
       37 MO    10pz        0.0005    0.0000   -0.0000    0.0002    0.0000    0.0000   -0.0017   -0.0020    0.0000    0.0000
       38 MO     3d2-      -0.0000    0.0011    0.0000    0.0000    0.0007   -0.0000    0.0000   -0.0000   -0.0005    0.0000
       39 MO     4d2-      -0.0000    0.3745    0.0000    0.0000    0.2667   -0.0000    0.0000   -0.0000   -0.0246    0.0000
       40 MO     5d2-      -0.0000    0.0927    0.0000    0.0000    0.0521   -0.0000    0.0000    0.0000    0.4989   -0.0000
       41 MO     6d2-       0.0000    0.0452    0.0000    0.0000    0.0470   -0.0000   -0.0000    0.0000    0.5613   -0.0000
       42 MO     7d2-       0.0000   -0.0070   -0.0000    0.0000    0.0047   -0.0000   -0.0000    0.0000    0.4418   -0.0000
       43 MO     8d2-       0.0000   -0.0052   -0.0000    0.0000   -0.0037    0.0000   -0.0000    0.0000    0.1704   -0.0000
       44 MO     9d2-       0.0000   -0.0016   -0.0000    0.0000   -0.0032    0.0000   -0.0000    0.0000    0.0070   -0.0000
       45 MO    10d2-       0.0000    0.0012    0.0000    0.0000    0.0006   -0.0000   -0.0000   -0.0000   -0.0153    0.0000
       46 MO    11d2-       0.0000   -0.0002   -0.0000    0.0000   -0.0002    0.0000   -0.0000    0.0000   -0.0015    0.0000
       47 MO     3d1-      -0.0000    0.0020    0.0000   -0.0000    0.0015   -0.0000    0.0000    0.0000    0.0002   -0.0000
       48 MO     4d1-       0.0000    0.6596    0.0000    0.0000    0.5002   -0.0000    0.0000   -0.0000   -0.0108    0.0000
       49 MO     5d1-       0.0000    0.1602    0.0000    0.0000    0.0493   -0.0000    0.0000   -0.0000   -0.2574    0.0000
       50 MO     6d1-       0.0000    0.0825    0.0000    0.0000    0.0519   -0.0000    0.0000    0.0000   -0.2871    0.0000
       51 MO     7d1-       0.0000   -0.0084   -0.0000    0.0000   -0.0005    0.0000    0.0000    0.0000   -0.2223    0.0000
       52 MO     8d1-      -0.0000   -0.0103   -0.0000   -0.0000   -0.0045    0.0000   -0.0000    0.0000   -0.0858    0.0000
       53 MO     9d1-       0.0000   -0.0044   -0.0000   -0.0000   -0.0023    0.0000   -0.0000    0.0000   -0.0035    0.0000
       54 MO    10d1-       0.0000    0.0020    0.0000    0.0000    0.0016   -0.0000   -0.0000    0.0000    0.0076   -0.0000
       55 MO    11d1-       0.0000   -0.0003   -0.0000   -0.0000   -0.0002    0.0000   -0.0000    0.0000    0.0008   -0.0000
       56 MO     3d0        0.0007   -0.0000   -0.0000    0.0027    0.0000    0.0000   -0.0000    0.0001   -0.0000   -0.0000
       57 MO     4d0        0.2346   -0.0000   -0.0000    0.9358    0.0000    0.0000   -0.0080    0.0633   -0.0000    0.0000
       58 MO     5d0        0.0493   -0.0000   -0.0000    0.1611   -0.0000   -0.0000    0.0164    0.0763    0.0000    0.0000
       59 MO     6d0        0.0091   -0.0000   -0.0000    0.1123   -0.0000   -0.0000    0.0263    0.1003    0.0000    0.0000
       60 MO     7d0       -0.0085   -0.0000    0.0000   -0.0026   -0.0000   -0.0000    0.0123    0.0681    0.0000    0.0000
       61 MO     8d0       -0.0008    0.0000    0.0000   -0.0124    0.0000    0.0000   -0.0019    0.0204    0.0000    0.0000
       62 MO     9d0        0.0010    0.0000    0.0000   -0.0070    0.0000    0.0000   -0.0038   -0.0033    0.0000    0.0000
       63 MO    10d0        0.0006   -0.0000   -0.0000    0.0025    0.0000    0.0000   -0.0005   -0.0026   -0.0000   -0.0000
       64 MO    11d0       -0.0001    0.0000    0.0000   -0.0004    0.0000    0.0000   -0.0000   -0.0003   -0.0000   -0.0000
       65 MO     3d1+      -0.0000   -0.0000    0.0020    0.0000   -0.0000   -0.0015   -0.0000    0.0000   -0.0000   -0.0002
       66 MO     4d1+      -0.0000   -0.0000    0.6596    0.0000   -0.0000   -0.5002   -0.0000    0.0000    0.0000    0.0108
       67 MO     5d1+      -0.0000   -0.0000    0.1602    0.0000   -0.0000   -0.0493   -0.0000    0.0000    0.0000    0.2574
       68 MO     6d1+      -0.0000   -0.0000    0.0825    0.0000   -0.0000   -0.0519   -0.0000    0.0000    0.0000    0.2871
       69 MO     7d1+       0.0000    0.0000   -0.0084    0.0000    0.0000    0.0005    0.0000    0.0000    0.0000    0.2223
       70 MO     8d1+       0.0000    0.0000   -0.0103   -0.0000    0.0000    0.0045    0.0000    0.0000    0.0000    0.0858
       71 MO     9d1+      -0.0000    0.0000   -0.0044   -0.0000    0.0000    0.0023    0.0000   -0.0000    0.0000    0.0035
       72 MO    10d1+      -0.0000   -0.0000    0.0020    0.0000   -0.0000   -0.0016   -0.0000   -0.0000   -0.0000   -0.0076
       73 MO    11d1+      -0.0000    0.0000   -0.0003   -0.0000    0.0000    0.0002    0.0000    0.0000   -0.0000   -0.0008
       74 MO     3d2+      -0.0000    0.0000   -0.0011   -0.0000    0.0000    0.0007    0.0000   -0.0000   -0.0000   -0.0005
       75 MO     4d2+      -0.0000    0.0000   -0.3745   -0.0000    0.0000    0.2667    0.0000    0.0000   -0.0000   -0.0246
       76 MO     5d2+      -0.0000    0.0000   -0.0927   -0.0000    0.0000    0.0521    0.0000    0.0000    0.0000    0.4989
       77 MO     6d2+      -0.0000    0.0000   -0.0452   -0.0000    0.0000    0.0470    0.0000    0.0000    0.0000    0.5613
       78 MO     7d2+       0.0000   -0.0000    0.0070    0.0000    0.0000    0.0047    0.0000    0.0000    0.0000    0.4418
       79 MO     8d2+       0.0000   -0.0000    0.0052    0.0000   -0.0000   -0.0037   -0.0000    0.0000    0.0000    0.1704
       80 MO     9d2+      -0.0000   -0.0000    0.0016    0.0000   -0.0000   -0.0032   -0.0000   -0.0000    0.0000    0.0070
       81 MO    10d2+      -0.0000    0.0000   -0.0012   -0.0000    0.0000    0.0006    0.0000   -0.0000   -0.0000   -0.0153
       82 MO    11d2+       0.0000   -0.0000    0.0002    0.0000   -0.0000   -0.0002   -0.0000   -0.0000   -0.0000   -0.0015
       83 MO     4f3-      -0.0000    0.0000    0.0000   -0.0000    0.0000   -0.0000   -0.0000    0.0000    0.0000   -0.0000
       84 MO     5f3-       0.0000   -0.0000   -0.0000    0.0000   -0.0000    0.0000    0.0000   -0.0000   -0.0000    0.0000
       85 MO     6f3-      -0.0000   -0.0000   -0.0000   -0.0000   -0.0000    0.0000   -0.0000   -0.0000   -0.0000    0.0000
       86 MO     7f3-       0.0000   -0.0000   -0.0000   -0.0000   -0.0000    0.0000   -0.0000   -0.0000   -0.0000    0.0000
       87 MO     8f3-      -0.0000    0.0000    0.0000    0.0000    0.0000   -0.0000    0.0000    0.0000    0.0000   -0.0000
       88 MO     9f3-      -0.0000   -0.0000   -0.0000    0.0000   -0.0000    0.0000    0.0000    0.0000    0.0000   -0.0000
       89 MO     4f2-      -0.0000    0.1023    0.0000    0.0000    0.1057   -0.0000    0.0000   -0.0000   -0.0115    0.0000
       90 MO     5f2-       0.0000   -0.0335   -0.0000   -0.0000   -0.0513    0.0000   -0.0000   -0.0000   -0.0210    0.0000
       91 MO     6f2-       0.0000   -0.0072   -0.0000   -0.0000   -0.0185    0.0000   -0.0000   -0.0000   -0.0341    0.0000
       92 MO     7f2-       0.0000   -0.0064   -0.0000   -0.0000   -0.0113    0.0000   -0.0000   -0.0000   -0.0322    0.0000
       93 MO     8f2-      -0.0000    0.0029    0.0000    0.0000    0.0063   -0.0000    0.0000    0.0000    0.0272   -0.0000
       94 MO     9f2-      -0.0000   -0.0009   -0.0000   -0.0000   -0.0003    0.0000   -0.0000    0.0000    0.0020   -0.0000
       95 MO     4f1-      -0.0000    0.0123    0.0000    0.0000    0.0306   -0.0000    0.0000   -0.0000   -0.0031    0.0000
       96 MO     5f1-       0.0000   -0.0009   -0.0000   -0.0000   -0.0261    0.0000   -0.0000    0.0000    0.0156   -0.0000
       97 MO     6f1-       0.0000   -0.0010   -0.0000   -0.0000   -0.0174    0.0000   -0.0000    0.0000    0.0209   -0.0000
       98 MO     7f1-       0.0000   -0.0015   -0.0000   -0.0000   -0.0103    0.0000   -0.0000    0.0000    0.0199   -0.0000
       99 MO     8f1-      -0.0000    0.0009    0.0000    0.0000    0.0048   -0.0000    0.0000   -0.0000   -0.0168    0.0000
      100 MO     9f1-      -0.0000   -0.0003   -0.0000    0.0000    0.0001   -0.0000    0.0000   -0.0000   -0.0011    0.0000
      101 MO     4f0        0.0513    0.0000    0.0000   -0.0696    0.0000    0.0000   -0.0074   -0.0464    0.0000    0.0000
      102 MO     5f0       -0.0508   -0.0000   -0.0000    0.0224   -0.0000   -0.0000    0.0147    0.0331    0.0000    0.0000
      103 MO     6f0       -0.0162   -0.0000    0.0000   -0.0014   -0.0000   -0.0000    0.0121    0.0057    0.0000    0.0000
      104 MO     7f0       -0.0020   -0.0000    0.0000    0.0007   -0.0000   -0.0000    0.0071   -0.0034    0.0000    0.0000
      105 MO     8f0        0.0004    0.0000   -0.0000   -0.0011    0.0000    0.0000   -0.0029    0.0043   -0.0000   -0.0000
      106 MO     9f0        0.0009    0.0000   -0.0000    0.0003    0.0000    0.0000   -0.0002   -0.0000   -0.0000   -0.0000
      107 MO     4f1+      -0.0000   -0.0000    0.0123    0.0000   -0.0000   -0.0306   -0.0000   -0.0000    0.0000    0.0031
      108 MO     5f1+      -0.0000    0.0000   -0.0009   -0.0000    0.0000    0.0261    0.0000   -0.0000   -0.0000   -0.0156
      109 MO     6f1+      -0.0000    0.0000   -0.0010   -0.0000    0.0000    0.0174    0.0000   -0.0000   -0.0000   -0.0209
      110 MO     7f1+      -0.0000    0.0000   -0.0015   -0.0000    0.0000    0.0103    0.0000   -0.0000   -0.0000   -0.0199
      111 MO     8f1+      -0.0000   -0.0000    0.0009    0.0000   -0.0000   -0.0048   -0.0000    0.0000    0.0000    0.0168
      112 MO     9f1+       0.0000    0.0000   -0.0003    0.0000   -0.0000   -0.0001   -0.0000    0.0000    0.0000    0.0011
      113 MO     4f2+      -0.0000    0.0000   -0.1023   -0.0000    0.0000    0.1057    0.0000    0.0000   -0.0000   -0.0115
      114 MO     5f2+       0.0000   -0.0000    0.0335    0.0000   -0.0000   -0.0513   -0.0000   -0.0000   -0.0000   -0.0210
      115 MO     6f2+       0.0000   -0.0000    0.0072    0.0000   -0.0000   -0.0185   -0.0000   -0.0000   -0.0000   -0.0341
      116 MO     7f2+       0.0000   -0.0000    0.0064    0.0000   -0.0000   -0.0113   -0.0000   -0.0000   -0.0000   -0.0322
      117 MO     8f2+      -0.0000    0.0000   -0.0029   -0.0000    0.0000    0.0063    0.0000    0.0000    0.0000    0.0272
      118 MO     9f2+       0.0000   -0.0000    0.0009    0.0000   -0.0000   -0.0003   -0.0000    0.0000    0.0000    0.0020
      119 MO     4f3+       0.0522   -0.0000   -0.0000    0.0566   -0.0000   -0.0000    0.0213   -0.0235    0.0000    0.0000
      120 MO     5f3+      -0.0348   -0.0000    0.0000   -0.0183    0.0000    0.0000   -0.0219    0.0176   -0.0000   -0.0000
      121 MO     6f3+      -0.0083   -0.0000    0.0000   -0.0036    0.0000    0.0000   -0.0102    0.0033   -0.0000   -0.0000
      122 MO     7f3+      -0.0010   -0.0000    0.0000   -0.0025    0.0000    0.0000   -0.0042   -0.0013   -0.0000   -0.0000
      123 MO     8f3+       0.0005    0.0000   -0.0000    0.0014   -0.0000   -0.0000    0.0023    0.0015    0.0000    0.0000
      124 MO     9f3+       0.0003    0.0000   -0.0000   -0.0005   -0.0000   -0.0000    0.0003   -0.0001    0.0000    0.0000
      125 MO     5g4-      -0.0000    0.0120    0.0000    0.0000    0.0214   -0.0000    0.0000   -0.0000   -0.0005    0.0000
      126 MO     6g4-      -0.0000   -0.0008   -0.0000    0.0000    0.0174   -0.0000    0.0000   -0.0000   -0.0010    0.0000
      127 MO     7g4-      -0.0000   -0.0053   -0.0000   -0.0000    0.0044   -0.0000    0.0000   -0.0000   -0.0007    0.0000
      128 MO     8g4-      -0.0000   -0.0014   -0.0000   -0.0000    0.0007   -0.0000   -0.0000   -0.0000   -0.0002    0.0000
      129 MO     5g3-      -0.0000   -0.0000   -0.0000    0.0000   -0.0000    0.0000    0.0000    0.0000    0.0000   -0.0000
      130 MO     6g3-      -0.0000   -0.0000   -0.0000    0.0000   -0.0000    0.0000    0.0000   -0.0000    0.0000   -0.0000
      131 MO     7g3-      -0.0000    0.0000    0.0000    0.0000    0.0000   -0.0000    0.0000    0.0000   -0.0000    0.0000
      132 MO     8g3-      -0.0000    0.0000    0.0000    0.0000    0.0000   -0.0000   -0.0000   -0.0000   -0.0000    0.0000
      133 MO     5g2-      -0.0000   -0.0146   -0.0000   -0.0000   -0.0112    0.0000   -0.0000    0.0000    0.0012   -0.0000
      134 MO     6g2-       0.0000   -0.0073   -0.0000   -0.0000   -0.0047    0.0000   -0.0000   -0.0000   -0.0005    0.0000
      135 MO     7g2-      -0.0000    0.0003    0.0000    0.0000    0.0017   -0.0000    0.0000   -0.0000   -0.0012    0.0000
      136 MO     8g2-       0.0000    0.0003    0.0000    0.0000    0.0009   -0.0000    0.0000   -0.0000   -0.0006    0.0000
      137 MO     5g1-      -0.0000   -0.0058   -0.0000   -0.0000    0.0086   -0.0000    0.0000   -0.0000   -0.0038    0.0000
      138 MO     6g1-      -0.0000   -0.0139   -0.0000   -0.0000    0.0106   -0.0000    0.0000   -0.0000    0.0001   -0.0000
      139 MO     7g1-      -0.0000   -0.0087   -0.0000   -0.0000    0.0039   -0.0000    0.0000    0.0000    0.0022   -0.0000
      140 MO     8g1-      -0.0000   -0.0019   -0.0000   -0.0000    0.0009   -0.0000   -0.0000   -0.0000    0.0009   -0.0000
      141 MO     5g0       -0.0054    0.0000    0.0000   -0.0422    0.0000    0.0000   -0.0146   -0.0044    0.0000    0.0000
      142 MO     6g0        0.0017    0.0000    0.0000   -0.0226    0.0000    0.0000   -0.0234   -0.0049    0.0000    0.0000
      143 MO     7g0        0.0027    0.0000    0.0000   -0.0005    0.0000    0.0000   -0.0114   -0.0017    0.0000    0.0000
      144 MO     8g0        0.0004    0.0000   -0.0000    0.0005    0.0000    0.0000   -0.0024   -0.0002    0.0000    0.0000
      145 MO     5g1+       0.0000    0.0000   -0.0058   -0.0000   -0.0000   -0.0086   -0.0000   -0.0000    0.0000    0.0038
      146 MO     6g1+       0.0000    0.0000   -0.0139   -0.0000   -0.0000   -0.0106   -0.0000   -0.0000   -0.0000   -0.0001
      147 MO     7g1+       0.0000    0.0000   -0.0087   -0.0000   -0.0000   -0.0039   -0.0000   -0.0000   -0.0000   -0.0022
[...]
         3    7       9.75273562E-03  3.66143832E+06  5.06266944E-05  5.00741949E+05  4.16218027E+06
         3    9       8.57941502E-03  5.06261016E-05  3.66144567E+06  1.93061205E-04  3.66144567E+06
         3   11       1.36928935E-03  1.14650644E-04  8.40865852E+05  4.44161708E-15  8.40865852E+05
         3   13       5.18294114E-02  3.92674650E+07  2.44697895E-02  1.56355202E+07  5.49029852E+07
         3   15       3.70693668E-02  2.44696558E-02  3.92676479E+07  4.04890396E-05  3.92676479E+07
         3   17       1.64109228E-02  2.54850424E-03  1.86900669E+07  6.25989357E-14  1.86900669E+07
         4    6       5.13678449E-05  2.18594478E-07  1.60315097E+03  8.39170963E-22  1.60315097E+03
         4    8       9.75273562E-03  3.66143832E+06  5.06266944E-05  5.00741949E+05  4.16218027E+06
         4   10       8.57941502E-03  5.06261016E-05  3.66144567E+06  1.93061205E-04  3.66144567E+06
         4   12       1.36928935E-03  1.14650644E-04  8.40865852E+05  4.44161708E-15  8.40865852E+05
         4   14       5.18294114E-02  3.92674650E+07  2.44697895E-02  1.56355202E+07  5.49029852E+07
         4   16       3.70693668E-02  2.44696558E-02  3.92676479E+07  4.04890396E-05  3.92676479E+07
         4   18       1.64109228E-02  2.54850424E-03  1.86900669E+07  6.25989357E-14  1.86900669E+07
         5    7       9.96337621E-02  1.43352366E-03  2.26330310E+07  2.58945884E-16  2.26330310E+07
         5    9       9.96339220E-02  2.26331018E+07  1.43352524E-03  1.15380873E-06  2.26331018E+07
         5   11       7.98733301E-03  1.11556872E-06  3.23587543E-14  2.94270294E+06  2.94270294E+06
         5   13       2.80682005E-01  3.60135125E-02  2.04017314E+08  2.57965470E-14  2.04017314E+08
         5   15       2.80682152E-01  2.04017442E+08  3.60134709E-02  2.35916976E-03  2.04017442E+08
         5   17       2.60593319E-01  2.96209792E-03  9.20698329E-13  2.06658043E+08  2.06658043E+08
         6    8       9.96337621E-02  1.43352366E-03  2.26330310E+07  2.58945884E-16  2.26330310E+07
         6   10       9.96339220E-02  2.26331018E+07  1.43352524E-03  1.15380873E-06  2.26331018E+07
         6   12       7.98733301E-03  1.11556872E-06  3.23587543E-14  2.94270294E+06  2.94270294E+06
         6   14       2.80682005E-01  3.60135125E-02  2.04017314E+08  2.57965470E-14  2.04017314E+08
         6   16       2.80682152E-01  2.04017442E+08  3.60134709E-02  2.35916976E-03  2.04017442E+08
         6   18       2.60593319E-01  2.96209792E-03  9.20698329E-13  2.06658043E+08  2.06658043E+08
         7   11       2.57548574E-04  2.77221354E-07  4.37682408E+03  2.16337663E-17  4.37682408E+03
         7   13       5.89986612E-03  9.74370920E+04  2.76564437E-06  7.36427586E+05  8.33864678E+05
         7   15       6.89375276E-04  2.76558987E-06  9.74337077E+04  3.32376310E-04  9.74337080E+04
         7   17       1.24279951E-02  1.34855909E-04  2.12914452E+06  4.17189367E-17  2.12914452E+06
         8   12       2.57548574E-04  2.77221354E-07  4.37682408E+03  2.16337663E-17  4.37682408E+03
         8   14       5.89986612E-03  9.74370920E+04  2.76564437E-06  7.36427586E+05  8.33864678E+05
         8   16       6.89375276E-04  2.76558987E-06  9.74337077E+04  3.32376310E-04  9.74337080E+04
         8   18       1.24279951E-02  1.34855909E-04  2.12914452E+06  4.17189367E-17  2.12914452E+06
         9   11       2.57546770E-04  4.37676909E+03  2.77211801E-07  2.68676360E-08  4.37676909E+03
         9   13       6.89390975E-04  2.76564486E-06  9.74357149E+04  3.32375856E-04  9.74357152E+04
         9   15       5.89988072E-03  9.74403021E+04  2.76567998E-06  7.36425035E+05  8.33865337E+05
         9   17       1.24279582E-02  2.12913447E+06  1.34855065E-04  9.15741300E-07  2.12913447E+06
        10   12       2.57546770E-04  4.37676909E+03  2.77211801E-07  2.68676360E-08  4.37676909E+03
        10   14       6.89390975E-04  2.76564486E-06  9.74357149E+04  3.32375856E-04  9.74357152E+04
        10   16       5.89988072E-03  9.74403021E+04  2.76567998E-06  7.36425035E+05  8.33865337E+05
        10   18       1.24279582E-02  2.12913447E+06  1.34855065E-04  9.15741300E-07  2.12913447E+06
        11   13       3.20346877E-05  3.41017732E-07  1.93208195E+03  3.43314838E-18  1.93208195E+03
        11   15       3.20336391E-05  1.93201936E+03  3.41081770E-07  6.70793635E-05  1.93201943E+03
        11   17       9.95451793E-02  1.16582687E-07  4.25330147E-15  8.00318813E+06  8.00318813E+06
        12   14       3.20346877E-05  3.41017732E-07  1.93208195E+03  3.43314838E-18  1.93208195E+03
        12   16       3.20336391E-05  1.93201936E+03  3.41081770E-07  6.70793635E-05  1.93201943E+03
        12   18       9.95451793E-02  1.16582687E-07  4.25330147E-15  8.00318813E+06  8.00318813E+06
        13   17       3.03699397E-03  7.72451216E-07  4.37601219E+03  2.85589078E-17  4.37601220E+03
        14   18       3.03699397E-03  7.72451216E-07  4.37601219E+03  2.85589078E-17  4.37601220E+03
        15   17       3.03697207E-03  4.37597010E+03  7.72460854E-07  1.07232058E-09  4.37597010E+03
        16   18       3.03697207E-03  4.37597010E+03  7.72460854E-07  1.07232058E-09  4.37597010E+03
     -----------------------------------------------------------------------------------------------
--

++ Velocity transition strengths (SO states):
   ------------------------------------------
    for osc. strength at least    1.0000000000000001E-005

      From   To        Osc. strength     Einstein coefficients Ax, Ay, Az (sec-1)    Total A (sec-1)
     -----------------------------------------------------------------------------------------------
         1    5       1.34225927E-05  4.18910443E+02  5.71289626E-08  1.71035618E-08  4.18910443E+02
         1    7       4.52229996E-03  2.66860212E-05  1.92999135E+06  1.03350028E-04  1.92999135E+06
         1    9       5.15037288E-03  1.92997788E+06  2.66859294E-05  2.68059888E+05  2.19803777E+06
         1   11       8.45680393E-04  5.19325083E+05  7.08130176E-05  8.18206210E-07  5.19325083E+05
         1   13       2.93893740E-02  1.94001769E-02  3.11323253E+07  3.11254340E-05  3.11323254E+07
         1   15       4.07360644E-02  3.11319376E+07  1.94002843E-02  1.20200030E+07  4.31519406E+07
         1   17       1.27422051E-02  1.45118903E+07  1.97863858E-03  1.70861205E-05  1.45118903E+07
         2    6       1.34225927E-05  4.18910443E+02  5.71289626E-08  1.71035618E-08  4.18910443E+02
         2    8       4.52229996E-03  2.66860212E-05  1.92999135E+06  1.03350028E-04  1.92999135E+06
         2   10       5.15037288E-03  1.92997788E+06  2.66859294E-05  2.68059888E+05  2.19803777E+06
         2   12       8.45680393E-04  5.19325083E+05  7.08130176E-05  8.18206210E-07  5.19325083E+05
         2   14       2.93893740E-02  1.94001769E-02  3.11323253E+07  3.11254340E-05  3.11323254E+07
         2   16       4.07360644E-02  3.11319376E+07  1.94002843E-02  1.20200030E+07  4.31519406E+07
         2   18       1.27422051E-02  1.45118903E+07  1.97863858E-03  1.70861205E-05  1.45118903E+07
         3    5       1.34221746E-05  5.71201295E-08  4.18897212E+02  1.11751260E-18  4.18897212E+02
         3    7       5.15038434E-03  1.92998137E+06  2.66859771E-05  2.68058589E+05  2.19803996E+06
         3    9       4.52228402E-03  2.66858307E-05  1.92998646E+06  1.03349915E-04  1.92998646E+06
         3   11       8.45681416E-04  7.08081569E-05  5.19325660E+05  7.02427910E-15  5.19325660E+05
         3   13       4.07363282E-02  3.11321809E+07  1.94002258E-02  1.20200321E+07  4.31522130E+07
         3   15       2.93893717E-02  1.94001230E-02  3.11323233E+07  3.11265985E-05  3.11323233E+07
         3   17       1.27419532E-02  1.97874403E-03  1.45116023E+07  3.75116805E-14  1.45116023E+07
         4    6       1.34221746E-05  5.71201295E-08  4.18897212E+02  1.11751260E-18  4.18897212E+02
         4    8       5.15038434E-03  1.92998137E+06  2.66859771E-05  2.68058589E+05  2.19803996E+06
         4   10       4.52228402E-03  2.66858307E-05  1.92998646E+06  1.03349915E-04  1.92998646E+06
         4   12       8.45681416E-04  7.08081569E-05  5.19325660E+05  7.02427910E-15  5.19325660E+05
         4   14       4.07363282E-02  3.11321809E+07  1.94002258E-02  1.20200321E+07  4.31522130E+07
         4   16       2.93893717E-02  1.94001230E-02  3.11323233E+07  3.11265985E-05  3.11323233E+07
         4   18       1.27419532E-02  1.97874403E-03  1.45116023E+07  3.75116805E-14  1.45116023E+07
         5    7       9.69214595E-02  1.39450503E-03  2.20169748E+07  2.06138037E-16  2.20169748E+07
         5    9       9.69215855E-02  2.20170369E+07  1.39449894E-03  1.30605009E-06  2.20170369E+07
         5   11       8.86748845E-03  6.64073065E-07  9.63437955E-14  3.26698223E+06  3.26698223E+06
         5   13       2.62720465E-01  3.37090157E-02  1.90962402E+08  4.03518993E-14  1.90962402E+08
         5   15       2.62720589E-01  1.90962512E+08  3.37089846E-02  2.37463183E-03  1.90962512E+08
         5   17       2.58036174E-01  2.75313861E-03  8.27520699E-13  2.04630865E+08  2.04630865E+08
         6    8       9.69214595E-02  1.39450503E-03  2.20169748E+07  2.06138037E-16  2.20169748E+07
         6   10       9.69215855E-02  2.20170369E+07  1.39449894E-03  1.30605009E-06  2.20170369E+07
         6   12       8.86748845E-03  6.64073065E-07  9.63437955E-14  3.26698223E+06  3.26698223E+06
         6   14       2.62720465E-01  3.37090157E-02  1.90962402E+08  4.03518993E-14  1.90962402E+08
         6   16       2.62720589E-01  1.90962512E+08  3.37089846E-02  2.37463183E-03  1.90962512E+08
         6   18       2.58036174E-01  2.75313861E-03  8.27520699E-13  2.04630865E+08  2.04630865E+08
         7   11       7.74308570E-04  8.33458113E-07  1.31587767E+04  9.99369847E-19  1.31587767E+04
         7   13       1.33744218E-03  6.38556905E+03  1.81235753E-07  1.82644089E+05  1.89029658E+05
         7   15       4.51752265E-05  1.81275095E-07  6.38491868E+03  8.24336412E-05  6.38491876E+03
         7   17       7.36965426E-03  7.99679179E-05  1.26256193E+06  1.28858111E-15  1.26256193E+06
         8   12       7.74308570E-04  8.33458113E-07  1.31587767E+04  9.99369847E-19  1.31587767E+04
         8   14       1.33744218E-03  6.38556905E+03  1.81235753E-07  1.82644089E+05  1.89029658E+05
         8   16       4.51752265E-05  1.81275095E-07  6.38491868E+03  8.24336412E-05  6.38491876E+03
         8   18       7.36965426E-03  7.99679179E-05  1.26256193E+06  1.28858111E-15  1.26256193E+06
         9   11       7.74316512E-04  1.31588385E+04  8.33440346E-07  7.52546566E-08  1.31588385E+04
         9   13       4.51776248E-05  1.81226689E-07  6.38524377E+03  8.24333020E-05  6.38524386E+03
         9   15       1.33744119E-03  6.38626698E+03  1.81250193E-07  1.82642932E+05  1.89029199E+05
         9   17       7.36964594E-03  1.26255830E+06  7.99677017E-05  2.67702160E-07  1.26255830E+06
        10   12       7.74316512E-04  1.31588385E+04  8.33440346E-07  7.52546566E-08  1.31588385E+04
        10   14       4.51776248E-05  1.81226689E-07  6.38524377E+03  8.24333020E-05  6.38524386E+03
        10   16       1.33744119E-03  6.38626698E+03  1.81250193E-07  1.82642932E+05  1.89029199E+05
        10   18       7.36964594E-03  1.26255830E+06  7.99677017E-05  2.67702160E-07  1.26255830E+06
        11   13       4.53541220E-04  4.82853250E-06  2.73541563E+04  3.06299649E-15  2.73541563E+04
        11   15       4.53537649E-04  2.73539510E+04  4.82863233E-06  4.38964070E-05  2.73539511E+04
        11   17       7.02175454E-02  4.89184462E-07  6.37682207E-16  5.64533796E+06  5.64533796E+06
        12   14       4.53541220E-04  4.82853250E-06  2.73541563E+04  3.06299649E-15  2.73541563E+04
        12   16       4.53537649E-04  2.73539510E+04  4.82863233E-06  4.38964070E-05  2.73539511E+04
        12   18       7.02175454E-02  4.89184462E-07  6.37682207E-16  5.64533796E+06  5.64533796E+06
     -----------------------------------------------------------------------------------------------
--

++ Length and velocity gauge comparison (SO states):

 --------------------------------------------------
 A comparison between the dipole oscillator strengths in 
 length and velocity gauge will be performed

 All dipole oscillator differences above the tolerance of   0.10000000000000001       will be printed 

 Due to basis set deficiency these oscillator may be problematic 

 The tolerance is defined as ABS(1-O_l/O_v) 
 O_l : dipole oscillator strength in length gauge
 O_p : dipole oscillator strength in velocity gauge
 --------------------------------------------------

  Problematic transitions have been found

      From   To       Difference (%) Osc. st. (len.) Osc. st. (vel.)
     ---------------------------------------------------------------
         1    5           282.707772  5.13693054E-05  1.34225927E-05
         1    7            89.714135  8.57944227E-03  4.52229996E-03
         1    9            89.359457  9.75271811E-03  5.15037288E-03
         1   11            61.915556  1.36928811E-03  8.45680393E-04
         1   13            26.131826  3.70693541E-02  2.93893740E-02
         1   15            27.231452  5.18290864E-02  4.07360644E-02
         1   17            28.794357  1.64112411E-02  1.27422051E-02
         2    6           282.707772  5.13693054E-05  1.34225927E-05
         2    8            89.714135  8.57944227E-03  4.52229996E-03
         2   10            89.359457  9.75271811E-03  5.15037288E-03
         2   12            61.915556  1.36928811E-03  8.45680393E-04
         2   14            26.131826  3.70693541E-02  2.93893740E-02
         2   16            27.231452  5.18290864E-02  4.07360644E-02
         2   18            28.794357  1.64112411E-02  1.27422051E-02
         3    5           282.708811  5.13678449E-05  1.34221746E-05
         3    7            89.359375  9.75273562E-03  5.15038434E-03
         3    9            89.714202  8.57941502E-03  4.52228402E-03
         3   11            61.915507  1.36928935E-03  8.45681416E-04
         3   13            27.231426  5.18294114E-02  4.07363282E-02
         3   15            26.131879  3.70693668E-02  2.93893717E-02
         3   17            28.794405  1.64109228E-02  1.27419532E-02
         4    6           282.708811  5.13678449E-05  1.34221746E-05
         4    8            89.359375  9.75273562E-03  5.15038434E-03
         4   10            89.714202  8.57941502E-03  4.52228402E-03
         4   12            61.915507  1.36928935E-03  8.45681416E-04
         4   14            27.231426  5.18294114E-02  4.07363282E-02
         4   16            26.131879  3.70693668E-02  2.93893717E-02
         4   18            28.794405  1.64109228E-02  1.27419532E-02
         7   11            66.738251  2.57548574E-04  7.74308570E-04
         7   13           341.130554  5.89986612E-03  1.33744218E-03
         7   15          1426.002921  6.89375276E-04  4.51752265E-05
         7   17            68.637424  1.24279951E-02  7.36965426E-03
         8   12            66.738251  2.57548574E-04  7.74308570E-04
         8   14           341.130554  5.89986612E-03  1.33744218E-03
         8   16          1426.002921  6.89375276E-04  4.51752265E-05
         8   18            68.637424  1.24279951E-02  7.36965426E-03
         9   11            66.738825  2.57546770E-04  7.74316512E-04
         9   13          1425.956662  6.89390975E-04  4.51776248E-05
         9   15           341.131974  5.89988072E-03  1.33744119E-03
         9   17            68.637114  1.24279582E-02  7.36964594E-03
        10   12            66.738825  2.57546770E-04  7.74316512E-04
        10   14          1425.956662  6.89390975E-04  4.51776248E-05
        10   16           341.131974  5.89988072E-03  1.33744119E-03
        10   18            68.637114  1.24279582E-02  7.36964594E-03
        11   13            92.936764  3.20346877E-05  4.53541220E-04
        11   15            92.936939  3.20336391E-05  4.53537649E-04
        11   17            41.766817  9.95451793E-02  7.02175454E-02
        12   14            92.936764  3.20346877E-05  4.53541220E-04
        12   16            92.936939  3.20336391E-05  4.53537649E-04
        12   18            41.766817  9.95451793E-02  7.02175454E-02
        13   17      ---------------  3.03699397E-03 below threshold
        14   18      ---------------  3.03699397E-03 below threshold
        15   17      ---------------  3.03697207E-03 below threshold
        16   18      ---------------  3.03697207E-03 below threshold
     ---------------------------------------------------------------

 Number of problematic transitions =                    54

--

 Electric-dipole - electric-octupole not included
++ I/O STATISTICS
 
  I. General I/O information
  - - - - - - - - - - - - - - - - - - - - - - - - - - - - - - - - - - - - - - - - - - -
  Unit  Name          Flsize      Write/Read            MBytes           Write/Read
                      (MBytes)       Calls              In/Out           Time, sec.
  - - - - - - - - - - - - - - - - - - - - - - - - - - - - - - - - - - - - - - - - - - -
   1  SCRATCH           0.00 .       9/      45 .      0.0/      0.0 .       0/       0
   2  ANNI              0.00 .       0/       0 .      0.0/      0.0 .       0/       0
   3  RUNFILE          14.89 .     322/   10301 .      2.3/     74.7 .       0/       0
   4  ONEINT            5.68 .       0/   24849 .      0.0/   3743.6 .       0/       0
   5  JOBIPH            6.59 .       0/      92 .      0.0/      0.8 .       0/       0
   6  ORDINT          529.03 .       1/    4233 .      0.0/   1058.0 .       0/       0
  - - - - - - - - - - - - - - - - - - - - - - - - - - - - - - - - - - - - - - - - - - -
   *  TOTAL           556.21 .     332/   39520 .      2.3/   4877.1 .       0/       0
  - - - - - - - - - - - - - - - - - - - - - - - - - - - - - - - - - - - - - - - - - - -
 
  II. I/O Access Patterns
  - - - - - - - - - - - - - - - - - - - -
  Unit  Name               % of random
                         Write/Read calls
  - - - - - - - - - - - - - - - - - - - -
   1  SCRATCH             88.9/ 100.0
   2  ANNI                 0.0/   0.0
   3  RUNFILE             28.6/  10.8
   4  ONEINT               0.0/  15.5
   5  JOBIPH               0.0/  76.1
   6  ORDINT             100.0/   0.0
  - - - - - - - - - - - - - - - - - - - -
--
--- Stop Module: rassi at Fri Jan 10 02:19:16 2025 /rc=_RC_ALL_IS_WELL_ ---
*** files: xmldump
    saved to directory /home4/s4752295/Internship/Initial_simulations/Point_charge_model/1_electron/active_space_9_non_rel/Mo/varying_bond_length
--- Module rassi spent 3 seconds ---

.##################.
.# Happy landing! #.
.##################.

    Timing: Wall=60.21 User=45.36 System=10.06

###############################################################################
Hbrk Cluster
Job 14556673 for user s4752295
Finished at: Fri Jan 10 02:19:16 CET 2025

Job details:
============

Job ID                         : 14556673
Name                           : Mo_no_c_light
User                           : s4752295
Partition                      : regularmedium
Nodes                          : node101
Number of Nodes                : 1
Cores                          : 1
Number of Tasks                : 1
State                          : RUNNING  
Submit                         : 2025-01-10T02:18:11
Start                          : 2025-01-10T02:18:12
End                            : --
Reserved walltime              : 15:00:00
Used walltime                  : 00:01:04
Used CPU time                  : -- 
% User (Computation)           : --
% System (I/O)                 : --
Total memory reserved          : 25000M
Maximum memory used            : --

Acknowledgements:
=================

Please see this page for information about acknowledging Hbrk in your publications:

https://wiki.hpc.rug.nl/habrok/introduction/scientific_output

################################################################################
