   This run of MOLCAS is using the pymolcas driver

                             OPE
                             OPE          NMOL  CASOP  ENMOLC A   SO
                 OPE        NMOLC        AS  OP EN  MO LC     AS  OP
                OPENM       OL CA        SO  PE NM  OL CA     SOP EN
                OP EN      MO   LC       AS  OP ENMOL  CASO   PENMOL
                OP  EN     MO   LC       AS  OP EN     MO     LC ASO
               OP   E  NMOL  C  AS       OP  EN MO     LC     AS  OP
               OP  E   NMO   LC AS        OPEN  MO     LCASOP EN   M
               O  PEN   MO  LCA  SO
            OPE   NMO   L   CAS    OP
        OPENMOL  CASOP     ENMOL   CASOPE
     OPENMOLCA   SOPENMOLCASOPEN   MOLCASOPE
    OPENMOLCAS   OP           EN   MOL    CAS
    OPENMOLCAS       OP  ENM        O     LCA
    OPENMOLCAS    OPEN  MOLCASO     P  E  NMO
    OPENMOLCAS     OP               E  N  MOL
    OPENMOLCA   SO           PENM   O  L  CAS    OPEN    MO    LCAS
    OPENMOLCA   SOP           ENM   O  L  CAS   OP  EN  MOLC  AS   O
    OPENMOLCA   SOPE           NM      O  LCA   S      OP  EN MO
    OPENMOLC                AS         O  PEN   M      OL  CA  SOPE
    OPENMO        LCASOPE  NMOL        C  ASO   P      ENMOLC     AS
    OPE     NMO      LCA  SO     P     E   NM   OL  CA SO  PE N   MO
          OPENMOLCA            SOPE   NMO        LCAS  O    P  ENMO
     OPENMOLCASOPENMOLCASOPENMOLCASOPENMOLCA
        OPENMOLCASOPENMOLCASOPENMOLCASOPE
            OPENMOLCASOPENMOLCASOPENM
               OPENMOLCASOPENMOLCA        version: o91e1abe7de707b ?
                   OPENMOLCASO
                       OPE                tag:

 OpenMolcas is free software; you can redistribute it and/or modify it
 under the terms of the GNU Lesser General Public License version 2.1.
 OpenMolcas is distributed in the hope that it will be useful, but it
 is provided "as is" and without any express or implied warranties.
 For more details see the full text of the license in the file
 LICENSE or in <http://www.gnu.org/licenses/>.

                 Copyright (C) The OpenMolcas Authors
           For the author list and the recommended citation,
                   consult the file CONTRIBUTORS.md

           *************************************************
           * pymolcas version py2.10                       *
           *   build 3068ae8b88c9345ec6cfef6fef7f1169      *
           *   (after the EMIL interpreter by V. Veryazov) *
           *************************************************

configuration info
------------------
Host name: login1 (Linux)
C Compiler ID: GNU
C flags: -std=gnu99
Fortran Compiler ID: GNU
Fortran flags: -fno-aggressive-loop-optimizations -cpp -fdefault-integer-8 -fmax-stack-var-size=1048576
Definitions: _MOLCAS_;_I8_;_LINUX_;_MKL_
Parallel: OFF (GA=OFF)


   ----------------------------------------------------------------------------------------------------------------------------------------------
  |
  |           Project: molybdenum_so_cf
  |    Submitted from: /home4/s4752295/Internship/Initial_simulations/Point_charge_model/1_electron/active_space_9_non_rel/Mo/varying_bond_length
  |      Scratch area: /tmp/molybdenum_so_cf
  |   Save outputs to: /home4/s4752295/Internship/Initial_simulations/Point_charge_model/1_electron/active_space_9_non_rel/Mo/varying_bond_length
  |            Molcas: /home4/s4752295/Internship/Molcas/recomp_try/OpenMolcas-master/build
  |
  | Scratch area is empty
  |
  |    MOLCAS_DRIVER = /home4/s4752295/Internship/Molcas/bin/pymolcas
  |    MOLCAS_NPROCS = 1
  |    MOLCAS_SOURCE = /home4/s4752295/Internship/Molcas/recomp_try/OpenMolcas-master
  | MOLCAS_STRUCTURE = 0
  |
   ----------------------------------------------------------------------------------------------------------------------------------------------

++ ---------   Input file   ---------

&SEWARD
AMFi

CLIG
$R

Basis Set
Mo.ANO-rcc.Roos.21s18p13d6f4g2h.10s9p9d6f4g2h.
Spherical d
Mo            0.0       0.0     0.0
End of Basis

Xfield

4
0.000000,  0.000,  1.512        -1.0
1.309430,  0.000, -0.756        -1.0
-0.654715,  1.134, -0.756       -1.0
-0.654715, -1.134, -0.756       -1.0

End of input

&SCF
Occupied
18
Iterations
   50  100
End of Input

&RASSCF
LumOrb
Symmetry
1
Spin
2
Nactel
1 0 0
CIRoot
9 9 1
inactive
18
ras2
9
End of Input

>>> COPY molybdenum_so_cf.JobIph $SLURM_SUBMIT_DIR/molybdenum_so_cf.doublet.JobIph

>>> COPY $SLURM_SUBMIT_DIR/molybdenum_so_cf.doublet.JobIph ./JOB002

&RASSI
NROFJobIph
1 All
SpinOrbit
End of Input

EOF

-- ----------------------------------

--- Start Module: seward at Fri Jan 10 02:23:27 2025 ---

()()()()()()()()()()()()()()()()()()()()()()()()()()()()()()()()()()()()()()()()()()()()()()()()()()

                                              &SEWARD

                                   only a single process is used
                       available to each process: 4.1 GB of memory, 1 thread?
                                            pid: 1093378
()()()()()()()()()()()()()()()()()()()()()()()()()()()()()()()()()()()()()()()()()()()()()()()()()()

 The speed of LIGHT in this CALCULATION =   137.03599917700001     
               SEWARD will generate:
                  Multipole Moment integrals up to order  2
                  Kinetic Energy integrals
                  Nuclear Attraction integrals (point charge)
                  One-Electron Hamiltonian integrals
                  Velocity integrals
                  Relativistic Douglas-Kroll-Hess integrals:
                    - Parametrization         : EXP
                    - DKH order of Hamiltonian: 2
                    - DKH order of Properties : 0
                         - multipole moment operators
                         - electric potential operators
                         - contact operators
                  External field from     4 point(s) added to the one-electron Hamiltonian
                  Orbital angular momentum around ( 0.0000  0.0000  0.0000 )
                  Velocity quadrupole around ( 0.0000  0.0000  0.0000 )
                  Atomic mean-field integrals
                  Two-Electron Repulsion integrals

                   Integrals are discarded if absolute value <: 0.10E-13
                   Integral cutoff threshold is set to       <: 0.10E-15

++    Symmetry information:
      ---------------------

                    Character Table for C1 

                             E  
                    a        1  x, y, xy, Rz, z, xz, Ry, yz, Rx, I
--


++    Basis set information:
      ----------------------


      Basis set label: MO.ANO-RCC.ROOS.21S18P13D6F4G2H.10S9P9D6F4G2H......

      Electronic valence basis set:
      ------------------
      Associated Effective Charge  42.000000 au
      Associated Actual Charge     42.000000 au
      Nuclear Model: Point charge

      Shell  nPrim  nBasis  Cartesian Spherical Contaminant
         s      21      10        X                  
         p      18       9        X                  
         d      13       9                 X         
         f       6       6                 X         
         g       4       4                 X         
         h       2       2                 X         
--


++    Molecular structure info:
      -------------------------

                    ************************************************ 
                    **** Cartesian Coordinates / Bohr, Angstrom **** 
                    ************************************************ 

     Center  Label                x              y              z                     x              y              z
        1      MO               0.000000       0.000000       0.000000              0.000000       0.000000       0.000000
--


++    Operator info:
      --------------


  Net charge from external field:   -4.0000000000000000     
--


            Nuclear Potential Energy              0.00000000 au

                    Nuclear-External Field Potential Energy    -111.11112091 au
                    External Field Potential Energy               2.46828782 au 


            Total Nuclear Potential Energy           -111.11112091 au


      Basis set specifications :
      Symmetry species         a  
      Basis functions          182

 Sorry, Molden does not know how to handle
 functions with angular momentum larger than g
Note: The following floating-point exceptions are signalling: IEEE_UNDERFLOW_FLAG IEEE_DENORMAL
--- Stop Module: seward at Fri Jan 10 02:23:37 2025 /rc=_RC_ALL_IS_WELL_ ---
*** files: molybdenum_so_cf.GssOrb xmldump
    saved to directory /home4/s4752295/Internship/Initial_simulations/Point_charge_model/1_electron/active_space_9_non_rel/Mo/varying_bond_length
--- Module seward spent 10 seconds ---

*** symbolic link created: INPORB -> molybdenum_so_cf.GssOrb
--- Start Module: scf at Fri Jan 10 02:23:37 2025 ---

()()()()()()()()()()()()()()()()()()()()()()()()()()()()()()()()()()()()()()()()()()()()()()()()()()

                                                &SCF

                                   only a single process is used
                       available to each process: 4.1 GB of memory, 1 thread?
                                            pid: 1093633
()()()()()()()()()()()()()()()()()()()()()()()()()()()()()()()()()()()()()()()()()()()()()()()()()()

++    Input section:
      --------------

      Header of the integral files:
      
       Integrals generated by seward 4.2.0  , Fri Jan 10 02:23:27 2025


      Cartesian coordinates in Angstrom:
      -----------------------------------------------------
      No.  Label        X            Y            Z        
      -----------------------------------------------------
       1   MO         0.00000000   0.00000000   0.00000000
      -----------------------------------------------------
      Nuclear repulsion energy = -111.11112091
--

++    Orbital specifications:
      -----------------------

      Symmetry species               1
                                     a
      Frozen orbitals                0
      Occupied orbitals             18
      Secondary orbitals           164
      Deleted orbitals               0
      Total number of orbitals     182
      Number of basis functions    182
--

      Molecular charge                           6.000

++    Optimization specifications:
      ----------------------------

      SCF Algorithm: Conventional
      Minimized density differences are used
      Number of density matrices in core                5
      Maximum number of NDDO SCF iterations            50
      Maximum number of HF SCF iterations             100
      Threshold for SCF energy change            0.10E-08
      Threshold for density matrix               0.10E-03
      Threshold for Fock matrix                  0.15E-03
      Threshold for linear dependence            0.10E-08
      Threshold at which DIIS is turned on       0.15E+00
      Threshold at which QNR/C2DIIS is turned on 0.75E-01
      Threshold for Norm(delta) (QNR/C2DIIS)     0.20E-04
      DIIS extrapolation of the SCF procedure
      All orbitals punched on: SCFORB
--

      Detected guessorb starting orbitals                                             


++ Convergence information
                                   SCF        iterations: Energy and convergence statistics

Iter     Tot. SCF        One-elec.       Two-elec.     Energy      Max Dij or  Max Fij      DNorm      TNorm      AccCon     Time
         Energy          Energy          Energy        Change      Delta Norm                                                in Sec.

 The total and one-electron energies are shifted by a value of      4000. a.u.

   1   -54.457633148 -1349.370961529  1406.024449289   0.00E+00    0.14E+00*   0.24E+00*    0.85E+01   0.55E+03   None         1.
   2   -54.817395951 -1359.180007410  1415.473732367  -0.36E+00*   0.51E-01*   0.39E-01*    0.83E+00   0.55E+03   EDIIS        1.
   3   -54.834374969 -1355.903650879  1412.180396819  -0.17E-01*   0.12E-01*   0.18E-01*    0.18E+00   0.55E+03   EDIIS        1.
   4   -54.836143226 -1357.196715591  1413.471693273  -0.18E-02*   0.56E-02*   0.70E-02*    0.36E-01   0.55E+03   c2DIIS       1.
   5   -54.836363981 -1356.678792864  1412.953549791  -0.22E-03*   0.18E-02*   0.24E-02*    0.42E-02   0.55E+03   QNRc2DIIS    1.
   6   -54.836389341 -1356.848645160  1413.123376727  -0.25E-04*   0.74E-03*   0.10E-02*    0.11E-02   0.55E+03   QNRc2DIIS    1.
   7   -54.836393087 -1356.799966593  1413.074694414  -0.37E-05*   0.12E-03*   0.86E-04     0.11E-03   0.55E+03   QNRc2DIIS    1.
   8   -54.836393141 -1356.795989305  1413.070717073  -0.53E-07*   0.68E-05    0.14E-04     0.10E-04   0.55E+03   QNRc2DIIS    1.
   9   -54.836393141 -1356.795831574  1413.070559341  -0.44E-09    0.76E-06    0.72E-06     0.90E-03   0.55E+03   QNRc2DIIS    1.

       Convergence after  9 Macro Iterations
--

 *****************************************************************************************************************************
 *                                                                                                                           *
 *                                             SCF/KS-DFT Program, Final results                                             *
 *                                                                                                                           *
 *                                                                                                                           *
 *                                                                                                                           *
 *                                                       Final Results                                                       *
 *                                                                                                                           *
 *****************************************************************************************************************************

::    Total SCF energy                              -4054.8363931412
      One-electron energy                           -5356.7958315737
      Two-electron energy                            1413.0705593408
      Nuclear repulsion energy                       -111.1111209084
      Kinetic energy (interpolated)                  4465.4895010728
      Virial theorem                                    0.9080385011
      Total spin, S(S+1)                                0.0000000000
      Total spin, S                                     0.0000000000
      Max non-diagonal density matrix element           0.0000005622
      Max non-diagonal Fock matrix element              0.0000001638


      All orbitals with orbital energies smaller than  E(LUMO)+0.5 are printed

++    Molecular orbitals:
      -------------------

      Title: SCF orbitals

      Molecular orbitals for symmetry species 1: a  

          Orbital            1         2         3         4         5         6         7         8         9        10    
          Energy         -739.5126 -107.9465  -96.4025  -96.4025  -96.4014  -20.1807  -16.2852  -16.2852  -16.2714   -9.9264
          Occ. No.          2.0000    2.0000    2.0000    2.0000    2.0000    2.0000    2.0000    2.0000    2.0000    2.0000

        1 MO     1s         1.0000   -0.0000   -0.0000   -0.0000   -0.0000    0.0000   -0.0000    0.0000    0.0000   -0.0000
        2 MO     2s         0.0000    1.0000   -0.0000   -0.0000   -0.0002    0.0002    0.0000    0.0000   -0.0000   -0.0000
        3 MO     3s        -0.0000   -0.0002   -0.0000   -0.0000    0.0000    1.0000   -0.0000    0.0000   -0.0039   -0.0000
        4 MO     4s         0.0000    0.0000    0.0000    0.0000   -0.0000   -0.0023    0.0000   -0.0000    0.0009    0.0000
        5 MO     5s        -0.0000   -0.0000   -0.0000   -0.0000    0.0000    0.0003   -0.0000    0.0000   -0.0001   -0.0000
        6 MO     6s         0.0000    0.0000    0.0000    0.0000   -0.0000   -0.0004    0.0000   -0.0000    0.0001    0.0000
        7 MO     7s        -0.0000   -0.0000   -0.0000   -0.0000    0.0000    0.0009   -0.0000    0.0000   -0.0003    0.0000
        8 MO     8s         0.0000    0.0000    0.0000    0.0000   -0.0000   -0.0006   -0.0000   -0.0000    0.0001   -0.0000
        9 MO     9s        -0.0000   -0.0000   -0.0000   -0.0000    0.0000    0.0004   -0.0000   -0.0000   -0.0001    0.0000
       10 MO    10s         0.0000    0.0000   -0.0000    0.0000   -0.0000   -0.0003   -0.0000    0.0000    0.0000    0.0000
       11 MO     2px       -0.0000   -0.0000    0.0459    0.9989   -0.0000    0.0000   -0.0000    0.0002   -0.0000   -0.0000
       12 MO     3px        0.0000   -0.0000   -0.0000   -0.0002    0.0000   -0.0000   -0.0002    1.0000   -0.0000    0.0004
       13 MO     4px       -0.0000    0.0000    0.0000    0.0001   -0.0000   -0.0000    0.0000   -0.0026    0.0000   -0.0010
       14 MO     5px        0.0000   -0.0000   -0.0000   -0.0000    0.0000    0.0000   -0.0000    0.0006   -0.0000    0.0001
       15 MO     6px       -0.0000    0.0000    0.0000    0.0000   -0.0000   -0.0000    0.0000   -0.0011    0.0000   -0.0001
       16 MO     7px        0.0000   -0.0000   -0.0000   -0.0000    0.0000    0.0000   -0.0000    0.0007   -0.0000   -0.0001
       17 MO     8px       -0.0000    0.0000    0.0000    0.0000   -0.0000   -0.0000    0.0000   -0.0005    0.0000    0.0002
       18 MO     9px        0.0000   -0.0000   -0.0000   -0.0000    0.0000    0.0000   -0.0000    0.0004   -0.0000   -0.0001
       19 MO    10px       -0.0000   -0.0000    0.0000    0.0000   -0.0000   -0.0000    0.0000   -0.0002    0.0000    0.0000
       20 MO     2py        0.0000    0.0000    0.9989   -0.0459   -0.0000    0.0000    0.0002    0.0000   -0.0000   -0.0000
       21 MO     3py        0.0000   -0.0000   -0.0002    0.0000    0.0000    0.0000    1.0000    0.0002   -0.0000    0.0000
       22 MO     4py        0.0000    0.0000    0.0001   -0.0000   -0.0000   -0.0000   -0.0026   -0.0000   -0.0000   -0.0000
       23 MO     5py       -0.0000   -0.0000   -0.0000    0.0000    0.0000    0.0000    0.0006    0.0000    0.0000    0.0000
       24 MO     6py        0.0000    0.0000    0.0000   -0.0000   -0.0000   -0.0000   -0.0011   -0.0000    0.0000   -0.0000
       25 MO     7py        0.0000   -0.0000   -0.0000    0.0000    0.0000    0.0000    0.0007    0.0000   -0.0000   -0.0000
       26 MO     8py       -0.0000    0.0000    0.0000   -0.0000   -0.0000   -0.0000   -0.0005   -0.0000   -0.0000    0.0000
       27 MO     9py        0.0000   -0.0000   -0.0000    0.0000    0.0000    0.0000    0.0004    0.0000    0.0000   -0.0000
       28 MO    10py       -0.0000    0.0000    0.0000   -0.0000   -0.0000   -0.0000   -0.0002   -0.0000    0.0000    0.0000
       29 MO     2pz        0.0000    0.0002    0.0000    0.0000    1.0000   -0.0000   -0.0000    0.0000    0.0002    0.0000
       30 MO     3pz       -0.0000    0.0000   -0.0000   -0.0000   -0.0002    0.0039   -0.0000    0.0000    1.0000    0.0000
       31 MO     4pz        0.0000   -0.0000    0.0000    0.0000    0.0001    0.0004    0.0000   -0.0000   -0.0036   -0.0000
       32 MO     5pz       -0.0000    0.0000   -0.0000   -0.0000   -0.0000   -0.0001   -0.0000    0.0000    0.0008    0.0000
       33 MO     6pz        0.0000   -0.0000    0.0000    0.0000    0.0000    0.0002    0.0000   -0.0000   -0.0015    0.0000
       34 MO     7pz       -0.0000    0.0000   -0.0000   -0.0000   -0.0000   -0.0001   -0.0000    0.0000    0.0009   -0.0000
       35 MO     8pz        0.0000   -0.0000    0.0000    0.0000    0.0000    0.0001    0.0000   -0.0000   -0.0007    0.0000
       36 MO     9pz       -0.0000    0.0000   -0.0000   -0.0000   -0.0000   -0.0001   -0.0000    0.0000    0.0004    0.0000
       37 MO    10pz        0.0000   -0.0000    0.0000    0.0000    0.0000    0.0000    0.0000   -0.0000   -0.0003    0.0000
       38 MO     3d2-       0.0000    0.0000   -0.0000    0.0000   -0.0000   -0.0000    0.0013    0.0000   -0.0000   -0.0000
       39 MO     4d2-       0.0000   -0.0000   -0.0000    0.0000    0.0000    0.0000    0.0004    0.0000   -0.0000    0.0000
       40 MO     5d2-      -0.0000    0.0000    0.0000   -0.0000    0.0000   -0.0000   -0.0003   -0.0000   -0.0000   -0.0000
       41 MO     6d2-      -0.0000   -0.0000   -0.0000    0.0000   -0.0000    0.0000    0.0002    0.0000    0.0000    0.0000
       42 MO     7d2-       0.0000    0.0000    0.0000   -0.0000   -0.0000   -0.0000   -0.0000   -0.0000    0.0000   -0.0000
       43 MO     8d2-      -0.0000   -0.0000    0.0000   -0.0000    0.0000    0.0000   -0.0000   -0.0000    0.0000    0.0000
       44 MO     9d2-      -0.0000    0.0000   -0.0000    0.0000    0.0000   -0.0000    0.0001    0.0000   -0.0000   -0.0000
       45 MO    10d2-       0.0000   -0.0000    0.0000   -0.0000   -0.0000    0.0000   -0.0001   -0.0000    0.0000    0.0000
       46 MO    11d2-      -0.0000    0.0000   -0.0000    0.0000    0.0000    0.0000    0.0000    0.0000    0.0000   -0.0000
       47 MO     3d1-       0.0000   -0.0000    0.0000   -0.0000   -0.0000   -0.0000    0.0032    0.0000   -0.0000    0.0000
       48 MO     4d1-       0.0000    0.0000   -0.0000    0.0000    0.0000    0.0000    0.0006    0.0000   -0.0000   -0.0000
       49 MO     5d1-      -0.0000   -0.0000    0.0000   -0.0000   -0.0000   -0.0000   -0.0006   -0.0000    0.0000    0.0000
       50 MO     6d1-      -0.0000    0.0000   -0.0000    0.0000    0.0000    0.0000    0.0003    0.0000   -0.0000   -0.0000
       51 MO     7d1-       0.0000   -0.0000    0.0000   -0.0000   -0.0000   -0.0000   -0.0002   -0.0000    0.0000    0.0000
       52 MO     8d1-      -0.0000    0.0000   -0.0000    0.0000   -0.0000   -0.0000    0.0001    0.0000   -0.0000   -0.0000
       53 MO     9d1-       0.0000   -0.0000   -0.0000    0.0000    0.0000    0.0000   -0.0000   -0.0000    0.0000    0.0000
       54 MO    10d1-      -0.0000    0.0000    0.0000   -0.0000   -0.0000   -0.0000   -0.0000   -0.0000    0.0000   -0.0000
       55 MO    11d1-       0.0000   -0.0000   -0.0000    0.0000    0.0000    0.0000    0.0000    0.0000    0.0000    0.0000
       56 MO     3d0       -0.0000   -0.0000    0.0000    0.0000    0.0000   -0.0011   -0.0000    0.0000    0.0002   -0.0000
       57 MO     4d0        0.0000    0.0000    0.0000    0.0000    0.0000   -0.0002    0.0000   -0.0000   -0.0004   -0.0000
       58 MO     5d0       -0.0000   -0.0000   -0.0000   -0.0000   -0.0000    0.0002   -0.0000    0.0000    0.0003    0.0000
       59 MO     6d0        0.0000    0.0000    0.0000    0.0000   -0.0000   -0.0002   -0.0000    0.0000   -0.0001   -0.0000
       60 MO     7d0       -0.0000   -0.0000    0.0000    0.0000    0.0000    0.0001    0.0000   -0.0000   -0.0001   -0.0000
       61 MO     8d0        0.0000    0.0000   -0.0000   -0.0000   -0.0000   -0.0001   -0.0000    0.0000    0.0002    0.0000
       62 MO     9d0       -0.0000   -0.0000    0.0000    0.0000    0.0000    0.0001    0.0000   -0.0000   -0.0002   -0.0000
       63 MO    10d0        0.0000    0.0000   -0.0000   -0.0000   -0.0000   -0.0000   -0.0000    0.0000    0.0002   -0.0000
       64 MO    11d0       -0.0000   -0.0000    0.0000    0.0000    0.0000    0.0000    0.0000   -0.0000   -0.0000   -0.0000
       65 MO     3d1+       0.0000    0.0000    0.0000    0.0000   -0.0000    0.0000   -0.0000    0.0032   -0.0000    0.2513
       66 MO     4d1+       0.0000   -0.0000   -0.0000   -0.0000    0.0000    0.0000   -0.0000    0.0006   -0.0000   -0.0000
       67 MO     5d1+      -0.0000    0.0000    0.0000    0.0000   -0.0000   -0.0000    0.0000   -0.0006    0.0000    0.0000
       68 MO     6d1+       0.0000   -0.0000   -0.0000   -0.0000    0.0000    0.0000   -0.0000    0.0003   -0.0000   -0.0001
       69 MO     7d1+       0.0000    0.0000    0.0000    0.0000   -0.0000   -0.0000    0.0000   -0.0002    0.0000    0.0001
       70 MO     8d1+      -0.0000   -0.0000   -0.0000   -0.0000   -0.0000    0.0000   -0.0000    0.0001   -0.0000   -0.0002
       71 MO     9d1+       0.0000    0.0000   -0.0000   -0.0000    0.0000   -0.0000    0.0000   -0.0000    0.0000    0.0001
       72 MO    10d1+      -0.0000    0.0000    0.0000    0.0000   -0.0000    0.0000    0.0000   -0.0000   -0.0000   -0.0001
       73 MO    11d1+       0.0000   -0.0000   -0.0000   -0.0000    0.0000    0.0000   -0.0000    0.0000   -0.0000    0.0000
       74 MO     3d2+       0.0000    0.0000    0.0000    0.0000   -0.0000    0.0000    0.0000   -0.0013    0.0000    0.9679
       75 MO     4d2+      -0.0000   -0.0000    0.0000    0.0000   -0.0000    0.0000    0.0000   -0.0004    0.0000   -0.0023
       76 MO     5d2+       0.0000   -0.0000   -0.0000   -0.0000    0.0000   -0.0000   -0.0000    0.0003   -0.0000    0.0019
       77 MO     6d2+      -0.0000    0.0000    0.0000    0.0000   -0.0000   -0.0000    0.0000   -0.0002    0.0000   -0.0011
       78 MO     7d2+       0.0000   -0.0000   -0.0000   -0.0000   -0.0000    0.0000   -0.0000    0.0000   -0.0000    0.0006
       79 MO     8d2+      -0.0000   -0.0000   -0.0000   -0.0000    0.0000   -0.0000   -0.0000    0.0000    0.0000   -0.0005
       80 MO     9d2+       0.0000    0.0000    0.0000    0.0000   -0.0000    0.0000    0.0000   -0.0001    0.0000    0.0004
       81 MO    10d2+      -0.0000   -0.0000   -0.0000   -0.0000    0.0000    0.0000   -0.0000    0.0001   -0.0000   -0.0005
       82 MO    11d2+      -0.0000    0.0000    0.0000    0.0000   -0.0000    0.0000    0.0000   -0.0000    0.0000    0.0001
       83 MO     4f3-      -0.0000    0.0000    0.0000   -0.0000    0.0000    0.0000    0.0000    0.0000   -0.0000    0.0000
       84 MO     5f3-      -0.0000    0.0000    0.0000   -0.0000    0.0000    0.0000    0.0000    0.0000    0.0000    0.0000
       85 MO     6f3-       0.0000   -0.0000   -0.0000    0.0000   -0.0000   -0.0000   -0.0000   -0.0000    0.0000   -0.0000
       86 MO     7f3-      -0.0000    0.0000    0.0000   -0.0000    0.0000    0.0000    0.0000    0.0000   -0.0000    0.0000
       87 MO     8f3-       0.0000   -0.0000    0.0000   -0.0000   -0.0000    0.0000    0.0000    0.0000    0.0000   -0.0000
       88 MO     9f3-      -0.0000    0.0000   -0.0000    0.0000   -0.0000   -0.0000   -0.0000   -0.0000   -0.0000   -0.0000
       89 MO     4f2-      -0.0000   -0.0000   -0.0000    0.0000    0.0000   -0.0000   -0.0004   -0.0000    0.0000   -0.0000
       90 MO     5f2-       0.0000   -0.0000   -0.0000    0.0000    0.0000    0.0000   -0.0003   -0.0000    0.0000   -0.0000
       91 MO     6f2-      -0.0000    0.0000    0.0000   -0.0000   -0.0000   -0.0000    0.0002    0.0000   -0.0000    0.0000
       92 MO     7f2-       0.0000   -0.0000   -0.0000    0.0000    0.0000   -0.0000   -0.0001   -0.0000    0.0000   -0.0000
       93 MO     8f2-       0.0000   -0.0000   -0.0000    0.0000   -0.0000   -0.0000   -0.0000   -0.0000    0.0000   -0.0000
       94 MO     9f2-       0.0000    0.0000   -0.0000    0.0000    0.0000    0.0000    0.0001    0.0000   -0.0000    0.0000
       95 MO     4f1-      -0.0000    0.0000   -0.0000    0.0000    0.0000    0.0000   -0.0003   -0.0000    0.0000    0.0000
       96 MO     5f1-      -0.0000    0.0000   -0.0000    0.0000    0.0000    0.0000   -0.0003   -0.0000    0.0000    0.0000
       97 MO     6f1-      -0.0000   -0.0000    0.0000   -0.0000   -0.0000   -0.0000    0.0002    0.0000   -0.0000   -0.0000
       98 MO     7f1-       0.0000    0.0000   -0.0000    0.0000    0.0000    0.0000   -0.0001   -0.0000   -0.0000    0.0000
       99 MO     8f1-       0.0000   -0.0000   -0.0000    0.0000    0.0000    0.0000   -0.0001   -0.0000    0.0000    0.0000
      100 MO     9f1-       0.0000    0.0000    0.0000   -0.0000   -0.0000   -0.0000    0.0002    0.0000   -0.0000   -0.0000
      101 MO     4f0       -0.0000    0.0000   -0.0000   -0.0000   -0.0000   -0.0006    0.0000   -0.0000   -0.0004    0.0000
      102 MO     5f0       -0.0000    0.0000   -0.0000   -0.0000   -0.0000   -0.0005    0.0000   -0.0000   -0.0004    0.0000
      103 MO     6f0        0.0000   -0.0000    0.0000    0.0000    0.0000    0.0003   -0.0000    0.0000    0.0003    0.0000
      104 MO     7f0       -0.0000    0.0000   -0.0000   -0.0000   -0.0000   -0.0001    0.0000   -0.0000   -0.0002   -0.0000
      105 MO     8f0        0.0000   -0.0000   -0.0000   -0.0000   -0.0000   -0.0000    0.0000   -0.0000   -0.0001   -0.0000
      106 MO     9f0       -0.0000    0.0000    0.0000    0.0000    0.0000    0.0001   -0.0000    0.0000    0.0003   -0.0000
      107 MO     4f1+      -0.0000    0.0000   -0.0000   -0.0000    0.0000   -0.0000    0.0000   -0.0003    0.0000    0.0003
      108 MO     5f1+      -0.0000    0.0000   -0.0000   -0.0000    0.0000   -0.0000    0.0000   -0.0003    0.0000    0.0003
      109 MO     6f1+       0.0000   -0.0000    0.0000    0.0000   -0.0000    0.0000   -0.0000    0.0002   -0.0000   -0.0002
      110 MO     7f1+      -0.0000    0.0000   -0.0000   -0.0000    0.0000   -0.0000    0.0000   -0.0001    0.0000    0.0001
      111 MO     8f1+       0.0000   -0.0000   -0.0000   -0.0000    0.0000   -0.0000    0.0000   -0.0001    0.0000    0.0000
      112 MO     9f1+      -0.0000    0.0000    0.0000    0.0000   -0.0000    0.0000   -0.0000    0.0002   -0.0000   -0.0001
      113 MO     4f2+      -0.0000    0.0000    0.0000    0.0000   -0.0000    0.0000   -0.0000    0.0004   -0.0000    0.0016
      114 MO     5f2+      -0.0000    0.0000    0.0000    0.0000   -0.0000    0.0000   -0.0000    0.0003   -0.0000    0.0012
      115 MO     6f2+      -0.0000   -0.0000   -0.0000   -0.0000    0.0000   -0.0000    0.0000   -0.0002    0.0000   -0.0006
      116 MO     7f2+       0.0000    0.0000    0.0000    0.0000   -0.0000    0.0000   -0.0000    0.0001   -0.0000    0.0002
      117 MO     8f2+       0.0000    0.0000    0.0000    0.0000   -0.0000    0.0000   -0.0000    0.0000   -0.0000    0.0001
      118 MO     9f2+      -0.0000   -0.0000    0.0000    0.0000   -0.0000   -0.0000    0.0000   -0.0001    0.0000   -0.0005
      119 MO     4f3+      -0.0000    0.0000   -0.0000   -0.0000    0.0000   -0.0004   -0.0000    0.0000    0.0003   -0.0000
      120 MO     5f3+      -0.0000    0.0000   -0.0000   -0.0000    0.0000   -0.0003   -0.0000    0.0000    0.0002   -0.0000
      121 MO     6f3+       0.0000   -0.0000    0.0000    0.0000   -0.0000    0.0002   -0.0000    0.0000   -0.0001    0.0000
      122 MO     7f3+      -0.0000    0.0000    0.0000    0.0000    0.0000   -0.0001    0.0000   -0.0000    0.0000   -0.0000
      123 MO     8f3+       0.0000   -0.0000    0.0000    0.0000    0.0000   -0.0000    0.0000   -0.0000    0.0000   -0.0000
      124 MO     9f3+      -0.0000    0.0000   -0.0000   -0.0000    0.0000    0.0001    0.0000   -0.0000   -0.0000    0.0000
      125 MO     5g4-      -0.0000    0.0000    0.0000   -0.0000   -0.0000    0.0000   -0.0004   -0.0000    0.0000   -0.0000
      126 MO     6g4-       0.0000   -0.0000   -0.0000    0.0000    0.0000   -0.0000    0.0003    0.0000   -0.0000    0.0000
      127 MO     7g4-      -0.0000    0.0000    0.0000   -0.0000   -0.0000    0.0000   -0.0002   -0.0000    0.0000    0.0000
      128 MO     8g4-       0.0000   -0.0000    0.0000   -0.0000    0.0000   -0.0000    0.0001    0.0000   -0.0000   -0.0000
      129 MO     5g3-       0.0000    0.0000   -0.0000    0.0000    0.0000    0.0000   -0.0000   -0.0000    0.0000   -0.0000
      130 MO     6g3-      -0.0000   -0.0000    0.0000   -0.0000   -0.0000   -0.0000    0.0000    0.0000   -0.0000    0.0000
      131 MO     7g3-       0.0000    0.0000   -0.0000    0.0000    0.0000    0.0000    0.0000    0.0000    0.0000   -0.0000
      132 MO     8g3-      -0.0000   -0.0000    0.0000   -0.0000    0.0000   -0.0000   -0.0000   -0.0000   -0.0000    0.0000
      133 MO     5g2-      -0.0000   -0.0000    0.0000   -0.0000   -0.0000   -0.0000    0.0000    0.0000   -0.0000    0.0000
      134 MO     6g2-       0.0000    0.0000   -0.0000    0.0000    0.0000    0.0000   -0.0000   -0.0000    0.0000   -0.0000
      135 MO     7g2-      -0.0000   -0.0000    0.0000   -0.0000   -0.0000   -0.0000    0.0000    0.0000   -0.0000    0.0000
      136 MO     8g2-       0.0000    0.0000   -0.0000    0.0000    0.0000    0.0000    0.0000    0.0000   -0.0000   -0.0000
      137 MO     5g1-      -0.0000   -0.0000    0.0000   -0.0000   -0.0000    0.0000   -0.0005   -0.0000    0.0000   -0.0000
      138 MO     6g1-      -0.0000    0.0000   -0.0000    0.0000    0.0000   -0.0000    0.0003    0.0000   -0.0000    0.0000
      139 MO     7g1-       0.0000   -0.0000    0.0000   -0.0000   -0.0000   -0.0000   -0.0002   -0.0000    0.0000   -0.0000
      140 MO     8g1-      -0.0000    0.0000   -0.0000    0.0000    0.0000    0.0000    0.0001    0.0000   -0.0000    0.0000
      141 MO     5g0       -0.0000    0.0000    0.0000    0.0000    0.0000   -0.0000    0.0000   -0.0000   -0.0007    0.0000
      142 MO     6g0        0.0000   -0.0000   -0.0000   -0.0000   -0.0000    0.0000   -0.0000    0.0000    0.0005    0.0000
      143 MO     7g0       -0.0000    0.0000    0.0000    0.0000   -0.0000   -0.0000    0.0000   -0.0000   -0.0003   -0.0000
      144 MO     8g0        0.0000   -0.0000   -0.0000   -0.0000    0.0000    0.0000   -0.0000    0.0000    0.0001    0.0000
      145 MO     5g1+       0.0000   -0.0000    0.0000    0.0000    0.0000   -0.0000    0.0000   -0.0005    0.0000   -0.0005
      146 MO     6g1+       0.0000    0.0000   -0.0000   -0.0000   -0.0000    0.0000   -0.0000    0.0003   -0.0000    0.0003
      147 MO     7g1+      -0.0000   -0.0000    0.0000    0.0000    0.0000   -0.0000    0.0000   -0.0002    0.0000   -0.0001
      148 MO     8g1+      -0.0000    0.0000   -0.0000   -0.0000   -0.0000    0.0000   -0.0000    0.0001   -0.0000    0.0001
      149 MO     5g2+      -0.0000    0.0000   -0.0000   -0.0000    0.0000   -0.0000    0.0000   -0.0000    0.0000   -0.0003
      150 MO     6g2+       0.0000   -0.0000    0.0000    0.0000   -0.0000    0.0000   -0.0000    0.0000   -0.0000    0.0002
      151 MO     7g2+      -0.0000    0.0000   -0.0000   -0.0000    0.0000   -0.0000    0.0000   -0.0000    0.0000   -0.0001
      152 MO     8g2+       0.0000    0.0000    0.0000    0.0000   -0.0000    0.0000    0.0000   -0.0000   -0.0000    0.0001
      153 MO     5g3+       0.0000   -0.0000    0.0000    0.0000    0.0000    0.0003    0.0000   -0.0000   -0.0004    0.0000
      154 MO     6g3+      -0.0000    0.0000   -0.0000   -0.0000    0.0000   -0.0002   -0.0000    0.0000    0.0003   -0.0000
      155 MO     7g3+       0.0000   -0.0000    0.0000    0.0000   -0.0000    0.0001   -0.0000    0.0000   -0.0002    0.0000
      156 MO     8g3+      -0.0000    0.0000   -0.0000   -0.0000    0.0000   -0.0001    0.0000   -0.0000    0.0001   -0.0000
      157 MO     5g4+      -0.0000    0.0000    0.0000    0.0000    0.0000   -0.0000    0.0000   -0.0004    0.0000   -0.0000
      158 MO     6g4+       0.0000   -0.0000   -0.0000   -0.0000   -0.0000    0.0000   -0.0000    0.0003   -0.0000    0.0000
      159 MO     7g4+      -0.0000    0.0000    0.0000    0.0000    0.0000   -0.0000    0.0000   -0.0002    0.0000    0.0000
      160 MO     8g4+       0.0000    0.0000    0.0000    0.0000   -0.0000    0.0000   -0.0000    0.0001   -0.0000   -0.0000
      161 MO     6h5-      -0.0000   -0.0000    0.0000   -0.0000   -0.0000   -0.0000    0.0001    0.0000   -0.0000    0.0000
      162 MO     7h5-       0.0000    0.0000   -0.0000    0.0000    0.0000    0.0000   -0.0000   -0.0000   -0.0000   -0.0000
      163 MO     6h4-       0.0000    0.0000   -0.0000    0.0000    0.0000    0.0000    0.0003    0.0000   -0.0000   -0.0000
      164 MO     7h4-       0.0000   -0.0000    0.0000   -0.0000   -0.0000   -0.0000   -0.0002   -0.0000    0.0000    0.0000
      165 MO     6h3-      -0.0000   -0.0000    0.0000   -0.0000   -0.0000   -0.0000    0.0000    0.0000    0.0000   -0.0000
      166 MO     7h3-       0.0000    0.0000   -0.0000    0.0000    0.0000    0.0000    0.0000   -0.0000    0.0000    0.0000
      167 MO     6h2-       0.0000   -0.0000    0.0000   -0.0000   -0.0000    0.0000    0.0001    0.0000   -0.0000    0.0000
      168 MO     7h2-       0.0000   -0.0000   -0.0000    0.0000    0.0000   -0.0000   -0.0001   -0.0000    0.0000   -0.0000
      169 MO     6h1-      -0.0000   -0.0000    0.0000   -0.0000   -0.0000   -0.0000    0.0001    0.0000   -0.0000   -0.0000
      170 MO     7h1-       0.0000    0.0000   -0.0000    0.0000    0.0000    0.0000   -0.0000   -0.0000   -0.0000    0.0000
      171 MO     6h0       -0.0000    0.0000   -0.0000   -0.0000   -0.0000   -0.0001    0.0000   -0.0000   -0.0002   -0.0000
      172 MO     7h0        0.0000   -0.0000    0.0000    0.0000    0.0000    0.0000   -0.0000    0.0000    0.0001   -0.0000
      173 MO     6h1+       0.0000   -0.0000    0.0000    0.0000   -0.0000    0.0000   -0.0000    0.0001   -0.0000   -0.0001
      174 MO     7h1+      -0.0000   -0.0000   -0.0000   -0.0000    0.0000   -0.0000    0.0000   -0.0000    0.0000    0.0000
      175 MO     6h2+       0.0000   -0.0000   -0.0000   -0.0000    0.0000    0.0000    0.0000   -0.0001    0.0000   -0.0004
      176 MO     7h2+      -0.0000    0.0000    0.0000    0.0000   -0.0000   -0.0000   -0.0000    0.0001   -0.0000    0.0002
      177 MO     6h3+      -0.0000    0.0000   -0.0000   -0.0000   -0.0000   -0.0001   -0.0000    0.0000    0.0002   -0.0000
      178 MO     7h3+       0.0000   -0.0000    0.0000    0.0000    0.0000    0.0001    0.0000   -0.0000   -0.0002    0.0000
      179 MO     6h4+       0.0000   -0.0000   -0.0000   -0.0000   -0.0000    0.0000   -0.0000    0.0003   -0.0000   -0.0000
      180 MO     7h4+      -0.0000    0.0000    0.0000    0.0000    0.0000   -0.0000    0.0000   -0.0002    0.0000    0.0000
      181 MO     6h5+       0.0000   -0.0000   -0.0000   -0.0000    0.0000    0.0000    0.0000   -0.0001    0.0000   -0.0006
      182 MO     7h5+      -0.0000    0.0000    0.0000    0.0000   -0.0000   -0.0000   -0.0000    0.0000   -0.0000    0.0003

          Orbital           11        12        13        14        15        16        17        18        19        20    
          Energy           -9.9264   -9.9160   -9.9160   -9.9129   -3.4081   -2.2567   -2.2567   -2.1200   -0.4417   -0.3981
          Occ. No.          2.0000    2.0000    2.0000    2.0000    2.0000    2.0000    2.0000    2.0000    0.0000    0.0000

        1 MO     1s        -0.0000   -0.0000    0.0000    0.0000    0.0000   -0.0000   -0.0000   -0.0000    0.0000   -0.0000
        2 MO     2s        -0.0000   -0.0000    0.0000    0.0000    0.0000   -0.0000   -0.0000    0.0000    0.0000    0.0000
        3 MO     3s         0.0000   -0.0000   -0.0000    0.0011   -0.0022    0.0000    0.0000   -0.0007   -0.0003   -0.0000
        4 MO     4s         0.0000    0.0000    0.0000   -0.0019   -0.9944    0.0000   -0.0000   -0.0710    0.0093   -0.0000
        5 MO     5s        -0.0000   -0.0000   -0.0000    0.0002    0.0121    0.0000   -0.0000    0.0075    0.9677   -0.0000
        6 MO     6s         0.0000    0.0000    0.0000   -0.0002   -0.0122   -0.0000   -0.0000   -0.0073   -0.1375    0.0000
        7 MO     7s         0.0000   -0.0000   -0.0000    0.0003    0.0224    0.0000    0.0000    0.0126   -0.0440    0.0000
        8 MO     8s        -0.0000   -0.0000    0.0000   -0.0000   -0.0066    0.0000    0.0000   -0.0024   -0.0141    0.0000
        9 MO     9s        -0.0000    0.0000    0.0000   -0.0001    0.0001   -0.0000    0.0000   -0.0008    0.0042    0.0000
       10 MO    10s         0.0000    0.0000   -0.0000   -0.0000    0.0008   -0.0000    0.0000    0.0002    0.0013   -0.0000
       11 MO     2px       -0.0000   -0.0000   -0.0000    0.0000    0.0000   -0.0001    0.0000    0.0000    0.0000   -0.0000
       12 MO     3px        0.0000   -0.0000   -0.0034    0.0000   -0.0000    0.0025   -0.0000   -0.0000   -0.0000    0.0000
       13 MO     4px       -0.0000    0.0000    0.0029   -0.0000    0.0000    0.9889   -0.0000   -0.0000    0.0000    0.0072
       14 MO     5px        0.0000   -0.0000   -0.0005    0.0000   -0.0000   -0.0188    0.0000    0.0000    0.0000    0.0370
       15 MO     6px       -0.0000    0.0000    0.0005   -0.0000    0.0000    0.0220   -0.0000   -0.0000    0.0000    0.0050
       16 MO     7px       -0.0000    0.0000    0.0000   -0.0000   -0.0000   -0.0079    0.0000    0.0000   -0.0000   -0.0031
       17 MO     8px        0.0000   -0.0000   -0.0003    0.0000   -0.0000    0.0039   -0.0000   -0.0000   -0.0000   -0.0016
       18 MO     9px       -0.0000    0.0000    0.0002   -0.0000    0.0000    0.0017   -0.0000   -0.0000   -0.0000   -0.0003
       19 MO    10px        0.0000    0.0000    0.0000    0.0000    0.0000    0.0000   -0.0000    0.0000   -0.0000   -0.0000
       20 MO     2py        0.0000   -0.0000    0.0000    0.0000   -0.0000   -0.0000   -0.0001   -0.0000    0.0000   -0.0000
       21 MO     3py       -0.0004   -0.0034    0.0000   -0.0000    0.0000    0.0000    0.0025    0.0000   -0.0000    0.0000
       22 MO     4py        0.0010    0.0029   -0.0000    0.0000    0.0000    0.0000    0.9889   -0.0000    0.0000    0.0000
       23 MO     5py       -0.0001   -0.0005    0.0000   -0.0000   -0.0000   -0.0000   -0.0188    0.0000   -0.0000    0.0000
       24 MO     6py        0.0001    0.0005   -0.0000    0.0000    0.0000    0.0000    0.0220    0.0000   -0.0000    0.0000
       25 MO     7py        0.0001    0.0000   -0.0000    0.0000   -0.0000   -0.0000   -0.0079    0.0000   -0.0000   -0.0000
       26 MO     8py       -0.0002   -0.0003    0.0000   -0.0000    0.0000    0.0000    0.0039    0.0000   -0.0000   -0.0000
       27 MO     9py        0.0001    0.0002   -0.0000    0.0000   -0.0000    0.0000    0.0017   -0.0000    0.0000   -0.0000
       28 MO    10py       -0.0000    0.0000   -0.0000   -0.0000    0.0000    0.0000    0.0000   -0.0000   -0.0000   -0.0000
       29 MO     2pz        0.0000    0.0000   -0.0000   -0.0000   -0.0000   -0.0000    0.0000   -0.0001    0.0000   -0.0000
       30 MO     3pz        0.0000    0.0000    0.0000   -0.0003    0.0006    0.0000    0.0000    0.0036   -0.0001    0.0000
       31 MO     4pz       -0.0000    0.0000   -0.0000   -0.0016   -0.0691    0.0000   -0.0000    0.9906   -0.0108    0.0000
       32 MO     5pz        0.0000   -0.0000    0.0000    0.0002    0.0027   -0.0000    0.0000   -0.0172    0.1581   -0.0000
       33 MO     6pz       -0.0000    0.0000   -0.0000   -0.0000   -0.0007    0.0000   -0.0000    0.0282   -0.0039   -0.0000
       34 MO     7pz       -0.0000    0.0000   -0.0000   -0.0003   -0.0022   -0.0000    0.0000   -0.0161   -0.0130    0.0000
       35 MO     8pz       -0.0000   -0.0000    0.0000    0.0004    0.0015    0.0000   -0.0000    0.0072   -0.0071    0.0000
       36 MO     9pz        0.0000    0.0000   -0.0000   -0.0002    0.0005    0.0000   -0.0000    0.0041   -0.0030    0.0000
       37 MO    10pz        0.0000   -0.0000   -0.0000    0.0000   -0.0000    0.0000   -0.0000    0.0002   -0.0004    0.0000
       38 MO     3d2-       0.9679    0.2513   -0.0000    0.0000    0.0000   -0.0000   -0.0012   -0.0000    0.0000   -0.0000
       39 MO     4d2-      -0.0023   -0.0015    0.0000   -0.0000    0.0000    0.0000    0.0720   -0.0000    0.0000   -0.0000
       40 MO     5d2-       0.0019    0.0012   -0.0000    0.0000   -0.0000   -0.0000   -0.0288   -0.0000    0.0000   -0.0000
       41 MO     6d2-      -0.0011   -0.0006    0.0000   -0.0000    0.0000   -0.0000   -0.0004   -0.0000   -0.0000   -0.0000
       42 MO     7d2-       0.0006    0.0003   -0.0000    0.0000    0.0000    0.0000    0.0057   -0.0000   -0.0000    0.0000
       43 MO     8d2-      -0.0005   -0.0001    0.0000   -0.0000   -0.0000   -0.0000   -0.0037    0.0000   -0.0000    0.0000
       44 MO     9d2-       0.0004    0.0001   -0.0000    0.0000   -0.0000    0.0000    0.0002    0.0000   -0.0000    0.0000
       45 MO    10d2-      -0.0005   -0.0001    0.0000   -0.0000   -0.0000    0.0000    0.0011    0.0000   -0.0000   -0.0000
       46 MO    11d2-       0.0001    0.0000   -0.0000   -0.0000    0.0000    0.0000    0.0003    0.0000   -0.0000    0.0000
       47 MO     3d1-      -0.2513    0.9679   -0.0000    0.0000    0.0000   -0.0000   -0.0019   -0.0000   -0.0000    0.0000
       48 MO     4d1-       0.0000   -0.0036    0.0000   -0.0000    0.0000    0.0000    0.1055   -0.0000    0.0000    0.0000
       49 MO     5d1-      -0.0000    0.0029   -0.0000    0.0000   -0.0000   -0.0000   -0.0416    0.0000   -0.0000    0.0000
       50 MO     6d1-       0.0001   -0.0017    0.0000   -0.0000    0.0000   -0.0000   -0.0005    0.0000   -0.0000    0.0000
       51 MO     7d1-      -0.0001    0.0009   -0.0000    0.0000   -0.0000    0.0000    0.0077    0.0000   -0.0000   -0.0000
       52 MO     8d1-       0.0002   -0.0006    0.0000   -0.0000    0.0000   -0.0000   -0.0047   -0.0000    0.0000   -0.0000
       53 MO     9d1-      -0.0001    0.0004   -0.0000    0.0000   -0.0000    0.0000    0.0001   -0.0000   -0.0000   -0.0000
       54 MO    10d1-       0.0001   -0.0005    0.0000   -0.0000    0.0000    0.0000    0.0013   -0.0000   -0.0000    0.0000
       55 MO    11d1-      -0.0000    0.0001   -0.0000    0.0000   -0.0000    0.0000    0.0003   -0.0000   -0.0000   -0.0000
       56 MO     3d0        0.0000   -0.0000    0.0000    1.0000   -0.0018    0.0000    0.0000    0.0010   -0.0005   -0.0000
       57 MO     4d0       -0.0000    0.0000   -0.0000   -0.0039    0.0295   -0.0000    0.0000   -0.0819   -0.1016   -0.0000
       58 MO     5d0        0.0000   -0.0000    0.0000    0.0031   -0.0145    0.0000   -0.0000    0.0325   -0.0443   -0.0000
       59 MO     6d0        0.0000    0.0000   -0.0000   -0.0018    0.0014    0.0000   -0.0000    0.0010   -0.0048   -0.0000
       60 MO     7d0       -0.0000   -0.0000    0.0000    0.0010    0.0026   -0.0000    0.0000   -0.0071    0.0045    0.0000
       61 MO     8d0        0.0000    0.0000   -0.0000   -0.0006   -0.0025    0.0000   -0.0000    0.0047    0.0005    0.0000
       62 MO     9d0        0.0000   -0.0000    0.0000    0.0004    0.0006    0.0000   -0.0000   -0.0003    0.0001    0.0000
       63 MO    10d0        0.0000    0.0000   -0.0000   -0.0006    0.0007   -0.0000    0.0000   -0.0016    0.0000   -0.0000
       64 MO    11d0        0.0000   -0.0000    0.0000    0.0001    0.0001   -0.0000   -0.0000   -0.0004    0.0001    0.0000
       65 MO     3d1+       0.0000    0.0000    0.9679   -0.0000    0.0000   -0.0019    0.0000    0.0000    0.0000    0.0009
       66 MO     4d1+      -0.0000   -0.0000   -0.0036    0.0000   -0.0000    0.1055   -0.0000   -0.0000    0.0000    0.4937
       67 MO     5d1+       0.0000    0.0000    0.0029   -0.0000    0.0000   -0.0416    0.0000    0.0000    0.0000    0.0769
       68 MO     6d1+      -0.0000   -0.0000   -0.0017    0.0000   -0.0000   -0.0005    0.0000   -0.0000    0.0000    0.0271
       69 MO     7d1+       0.0000    0.0000    0.0009   -0.0000    0.0000    0.0077   -0.0000   -0.0000   -0.0000   -0.0052
       70 MO     8d1+      -0.0000   -0.0000   -0.0006    0.0000    0.0000   -0.0047    0.0000    0.0000   -0.0000   -0.0052
       71 MO     9d1+       0.0000    0.0000    0.0004   -0.0000   -0.0000    0.0001   -0.0000   -0.0000   -0.0000   -0.0017
       72 MO    10d1+      -0.0000   -0.0000   -0.0005    0.0000   -0.0000    0.0013   -0.0000   -0.0000    0.0000    0.0010
       73 MO    11d1+       0.0000    0.0000    0.0001   -0.0000    0.0000    0.0003   -0.0000   -0.0000    0.0000   -0.0000
       74 MO     3d2+       0.0000   -0.0000   -0.2513    0.0000    0.0000    0.0012   -0.0000   -0.0000    0.0000    0.0015
       75 MO     4d2+      -0.0000    0.0000    0.0015   -0.0000   -0.0000   -0.0720    0.0000    0.0000    0.0000    0.8470
       76 MO     5d2+       0.0000   -0.0000   -0.0012    0.0000    0.0000    0.0288   -0.0000   -0.0000    0.0000    0.1410
       77 MO     6d2+      -0.0000    0.0000    0.0006   -0.0000    0.0000    0.0004   -0.0000    0.0000    0.0000    0.0492
       78 MO     7d2+       0.0000   -0.0000   -0.0003    0.0000   -0.0000   -0.0057    0.0000    0.0000   -0.0000   -0.0109
       79 MO     8d2+      -0.0000    0.0000    0.0001   -0.0000    0.0000    0.0037   -0.0000   -0.0000   -0.0000   -0.0084
       80 MO     9d2+       0.0000   -0.0000   -0.0001    0.0000    0.0000   -0.0002    0.0000    0.0000    0.0000   -0.0027
       81 MO    10d2+      -0.0000    0.0000    0.0001   -0.0000   -0.0000   -0.0011    0.0000    0.0000    0.0000    0.0015
       82 MO    11d2+       0.0000   -0.0000   -0.0000    0.0000   -0.0000   -0.0003    0.0000   -0.0000   -0.0000   -0.0002
       83 MO     4f3-      -0.0000   -0.0000    0.0000   -0.0000    0.0000    0.0000    0.0000    0.0000    0.0000   -0.0000
       84 MO     5f3-      -0.0000   -0.0000    0.0000   -0.0000    0.0000    0.0000    0.0000   -0.0000   -0.0000    0.0000
       85 MO     6f3-       0.0000    0.0000   -0.0000    0.0000    0.0000    0.0000    0.0000   -0.0000   -0.0000    0.0000
       86 MO     7f3-      -0.0000   -0.0000    0.0000   -0.0000   -0.0000   -0.0000   -0.0000   -0.0000   -0.0000    0.0000
       87 MO     8f3-      -0.0000   -0.0000   -0.0000   -0.0000   -0.0000    0.0000    0.0000    0.0000    0.0000    0.0000
       88 MO     9f3-       0.0000    0.0000   -0.0000    0.0000    0.0000   -0.0000   -0.0000   -0.0000    0.0000    0.0000
       89 MO     4f2-       0.0016    0.0015   -0.0000    0.0000   -0.0000   -0.0000   -0.0231    0.0000    0.0000   -0.0000
       90 MO     5f2-       0.0012    0.0011   -0.0000    0.0000   -0.0000   -0.0000   -0.0060    0.0000   -0.0000    0.0000
       91 MO     6f2-      -0.0006   -0.0004    0.0000   -0.0000   -0.0000   -0.0000   -0.0033    0.0000   -0.0000    0.0000
       92 MO     7f2-       0.0002    0.0001   -0.0000    0.0000    0.0000    0.0000    0.0029   -0.0000   -0.0000    0.0000
       93 MO     8f2-       0.0001    0.0000   -0.0000    0.0000    0.0000    0.0000    0.0006   -0.0000    0.0000   -0.0000
       94 MO     9f2-      -0.0005   -0.0002    0.0000   -0.0000    0.0000    0.0000    0.0006    0.0000    0.0000    0.0000
       95 MO     4f1-      -0.0003    0.0005   -0.0000    0.0000   -0.0000   -0.0000   -0.0163    0.0000    0.0000    0.0000
       96 MO     5f1-      -0.0003    0.0005   -0.0000    0.0000   -0.0000   -0.0000   -0.0038    0.0000   -0.0000   -0.0000
       97 MO     6f1-       0.0002   -0.0003    0.0000   -0.0000    0.0000   -0.0000   -0.0016    0.0000   -0.0000   -0.0000
       98 MO     7f1-      -0.0001    0.0002   -0.0000    0.0000   -0.0000    0.0000    0.0009   -0.0000   -0.0000   -0.0000
       99 MO     8f1-      -0.0000    0.0001   -0.0000    0.0000   -0.0000   -0.0000   -0.0000   -0.0000    0.0000    0.0000
      100 MO     9f1-       0.0001   -0.0004    0.0000   -0.0000    0.0000    0.0000    0.0004    0.0000    0.0000   -0.0000
      101 MO     4f0        0.0000    0.0000    0.0000   -0.0006    0.0499   -0.0000    0.0000   -0.0206   -0.0371    0.0000
      102 MO     5f0        0.0000    0.0000    0.0000   -0.0003    0.0165   -0.0000    0.0000   -0.0039    0.0387   -0.0000
      103 MO     6f0       -0.0000    0.0000   -0.0000   -0.0001    0.0050   -0.0000    0.0000   -0.0022    0.0102   -0.0000
      104 MO     7f0        0.0000   -0.0000    0.0000    0.0003   -0.0058    0.0000   -0.0000    0.0009    0.0020   -0.0000
      105 MO     8f0        0.0000   -0.0000    0.0000    0.0001   -0.0013    0.0000   -0.0000   -0.0001   -0.0008    0.0000
      106 MO     9f0       -0.0000    0.0000   -0.0000   -0.0004   -0.0011    0.0000   -0.0000    0.0005   -0.0008   -0.0000
      107 MO     4f1+       0.0000    0.0000    0.0005   -0.0000    0.0000   -0.0163    0.0000    0.0000    0.0000    0.0280
      108 MO     5f1+       0.0000    0.0000    0.0005   -0.0000    0.0000   -0.0038    0.0000    0.0000    0.0000   -0.0117
      109 MO     6f1+      -0.0000   -0.0000   -0.0003    0.0000    0.0000   -0.0016    0.0000    0.0000   -0.0000   -0.0049
      110 MO     7f1+       0.0000    0.0000    0.0002   -0.0000   -0.0000    0.0009   -0.0000   -0.0000   -0.0000   -0.0022
      111 MO     8f1+       0.0000    0.0000    0.0001   -0.0000   -0.0000   -0.0000    0.0000   -0.0000   -0.0000    0.0006
      112 MO     9f1+      -0.0000   -0.0000   -0.0004    0.0000   -0.0000    0.0004   -0.0000   -0.0000   -0.0000   -0.0002
      113 MO     4f2+       0.0000   -0.0000   -0.0015    0.0000    0.0000    0.0231   -0.0000   -0.0000    0.0000    0.0754
      114 MO     5f2+       0.0000   -0.0000   -0.0011    0.0000   -0.0000    0.0060   -0.0000   -0.0000   -0.0000   -0.0265
      115 MO     6f2+      -0.0000    0.0000    0.0004   -0.0000    0.0000    0.0033   -0.0000    0.0000   -0.0000   -0.0088
      116 MO     7f2+       0.0000   -0.0000   -0.0001    0.0000   -0.0000   -0.0029    0.0000    0.0000   -0.0000   -0.0049
      117 MO     8f2+       0.0000   -0.0000   -0.0000    0.0000    0.0000   -0.0006    0.0000    0.0000    0.0000    0.0012
      118 MO     9f2+      -0.0000    0.0000    0.0002   -0.0000   -0.0000   -0.0006    0.0000    0.0000   -0.0000   -0.0007
      119 MO     4f3+      -0.0000   -0.0000    0.0000    0.0008    0.0321    0.0000   -0.0000    0.0287   -0.0319    0.0000
      120 MO     5f3+       0.0000   -0.0000    0.0000    0.0006    0.0107   -0.0000    0.0000    0.0070    0.0243   -0.0000
      121 MO     6f3+      -0.0000    0.0000   -0.0000   -0.0002    0.0032    0.0000   -0.0000    0.0038    0.0055   -0.0000
      122 MO     7f3+      -0.0000   -0.0000    0.0000    0.0001   -0.0037   -0.0000    0.0000   -0.0030    0.0013   -0.0000
      123 MO     8f3+       0.0000   -0.0000    0.0000    0.0000   -0.0008    0.0000   -0.0000   -0.0005   -0.0004    0.0000
      124 MO     9f3+       0.0000    0.0000   -0.0000   -0.0001   -0.0007   -0.0000    0.0000   -0.0008   -0.0004    0.0000
      125 MO     5g4-       0.0000    0.0005   -0.0000    0.0000   -0.0000   -0.0000   -0.0195    0.0000    0.0000    0.0000
      126 MO     6g4-      -0.0000   -0.0003    0.0000   -0.0000    0.0000    0.0000    0.0011   -0.0000    0.0000    0.0000
      127 MO     7g4-      -0.0000    0.0001   -0.0000    0.0000    0.0000    0.0000    0.0028   -0.0000    0.0000    0.0000
      128 MO     8g4-       0.0000    0.0000   -0.0000    0.0000   -0.0000   -0.0000   -0.0009    0.0000   -0.0000   -0.0000
      129 MO     5g3-       0.0000    0.0000   -0.0000   -0.0000    0.0000   -0.0000   -0.0000    0.0000    0.0000   -0.0000
      130 MO     6g3-      -0.0000   -0.0000    0.0000    0.0000   -0.0000   -0.0000   -0.0000   -0.0000    0.0000   -0.0000
      131 MO     7g3-       0.0000    0.0000    0.0000   -0.0000    0.0000    0.0000    0.0000    0.0000   -0.0000   -0.0000
      132 MO     8g3-      -0.0000   -0.0000   -0.0000    0.0000   -0.0000   -0.0000   -0.0000    0.0000    0.0000   -0.0000
      133 MO     5g2-      -0.0003   -0.0005    0.0000   -0.0000    0.0000    0.0000    0.0015   -0.0000   -0.0000    0.0000
      134 MO     6g2-       0.0002    0.0003   -0.0000    0.0000   -0.0000   -0.0000   -0.0005    0.0000   -0.0000    0.0000
      135 MO     7g2-      -0.0001   -0.0001    0.0000   -0.0000    0.0000   -0.0000   -0.0004   -0.0000    0.0000    0.0000
      136 MO     8g2-       0.0001    0.0000   -0.0000    0.0000   -0.0000    0.0000    0.0005    0.0000   -0.0000    0.0000
      137 MO     5g1-       0.0005   -0.0002    0.0000   -0.0000   -0.0000   -0.0000   -0.0244    0.0000    0.0000   -0.0000
      138 MO     6g1-      -0.0003    0.0002   -0.0000    0.0000    0.0000    0.0000    0.0011   -0.0000    0.0000   -0.0000
      139 MO     7g1-       0.0001   -0.0002    0.0000   -0.0000    0.0000    0.0000    0.0035   -0.0000    0.0000   -0.0000
      140 MO     8g1-      -0.0001    0.0002   -0.0000    0.0000   -0.0000   -0.0000   -0.0010    0.0000   -0.0000   -0.0000
      141 MO     5g0       -0.0000    0.0000   -0.0000   -0.0010    0.0031   -0.0000    0.0000   -0.0419    0.0020    0.0000
      142 MO     6g0        0.0000   -0.0000    0.0000    0.0006   -0.0004   -0.0000    0.0000    0.0021   -0.0024    0.0000
      143 MO     7g0       -0.0000    0.0000   -0.0000   -0.0003   -0.0004    0.0000   -0.0000    0.0064   -0.0013    0.0000
      144 MO     8g0        0.0000   -0.0000    0.0000    0.0001    0.0003   -0.0000   -0.0000   -0.0024    0.0001    0.0000
      145 MO     5g1+      -0.0000   -0.0000   -0.0002    0.0000   -0.0000   -0.0244    0.0000    0.0000   -0.0000   -0.0171
      146 MO     6g1+       0.0000    0.0000    0.0002   -0.0000   -0.0000    0.0011   -0.0000   -0.0000   -0.0000   -0.0075
      147 MO     7g1+      -0.0000   -0.0000   -0.0002    0.0000    0.0000    0.0035   -0.0000   -0.0000    0.0000   -0.0004
      148 MO     8g1+       0.0000    0.0000    0.0002   -0.0000    0.0000   -0.0010    0.0000    0.0000   -0.0000   -0.0002
      149 MO     5g2+      -0.0000    0.0000    0.0005   -0.0000    0.0000   -0.0015    0.0000   -0.0000   -0.0000   -0.0039
      150 MO     6g2+       0.0000   -0.0000   -0.0003    0.0000   -0.0000    0.0005   -0.0000   -0.0000   -0.0000   -0.0023
      151 MO     7g2+      -0.0000    0.0000    0.0001   -0.0000    0.0000    0.0004   -0.0000    0.0000   -0.0000   -0.0007
      152 MO     8g2+       0.0000   -0.0000   -0.0000    0.0000    0.0000   -0.0005    0.0000    0.0000   -0.0000   -0.0002
      153 MO     5g3+       0.0000    0.0000   -0.0000   -0.0002   -0.0188   -0.0000    0.0000   -0.0268    0.0092   -0.0000
      154 MO     6g3+      -0.0000   -0.0000    0.0000    0.0001    0.0036   -0.0000    0.0000    0.0018    0.0088   -0.0000
      155 MO     7g3+       0.0000    0.0000   -0.0000   -0.0000    0.0025    0.0000   -0.0000    0.0042    0.0002    0.0000
      156 MO     8g3+      -0.0000    0.0000    0.0000   -0.0000   -0.0023    0.0000   -0.0000   -0.0019   -0.0008    0.0000
      157 MO     5g4+      -0.0000    0.0000    0.0005   -0.0000    0.0000   -0.0195    0.0000    0.0000   -0.0000    0.0037
      158 MO     6g4+       0.0000   -0.0000   -0.0003    0.0000   -0.0000    0.0011   -0.0000   -0.0000   -0.0000    0.0015
      159 MO     7g4+       0.0000    0.0000    0.0001   -0.0000    0.0000    0.0028   -0.0000   -0.0000    0.0000    0.0000
      160 MO     8g4+      -0.0000    0.0000    0.0000   -0.0000    0.0000   -0.0009    0.0000    0.0000   -0.0000   -0.0001
      161 MO     6h5-      -0.0006   -0.0002    0.0000   -0.0000   -0.0000    0.0000    0.0024    0.0000   -0.0000    0.0000
      162 MO     7h5-       0.0003    0.0001   -0.0000    0.0000    0.0000   -0.0000   -0.0001   -0.0000   -0.0000    0.0000
      163 MO     6h4-       0.0000   -0.0006    0.0000   -0.0000    0.0000    0.0000    0.0124   -0.0000    0.0000   -0.0000
      164 MO     7h4-      -0.0000    0.0004   -0.0000    0.0000   -0.0000    0.0000    0.0001    0.0000   -0.0000   -0.0000
      165 MO     6h3-      -0.0000   -0.0000    0.0000    0.0000   -0.0000    0.0000    0.0000    0.0000   -0.0000    0.0000
      166 MO     7h3-       0.0000    0.0000   -0.0000   -0.0000    0.0000    0.0000    0.0000   -0.0000   -0.0000   -0.0000
      167 MO     6h2-      -0.0004   -0.0002    0.0000   -0.0000    0.0000    0.0000    0.0039   -0.0000   -0.0000    0.0000
      168 MO     7h2-       0.0002    0.0001   -0.0000    0.0000   -0.0000   -0.0000   -0.0000    0.0000   -0.0000    0.0000
      169 MO     6h1-       0.0001   -0.0009    0.0000   -0.0000    0.0000    0.0000    0.0024    0.0000    0.0000   -0.0000
      170 MO     7h1-      -0.0000    0.0005   -0.0000    0.0000    0.0000   -0.0000   -0.0003   -0.0000   -0.0000   -0.0000
      171 MO     6h0        0.0000    0.0000   -0.0000   -0.0011    0.0038   -0.0000    0.0000   -0.0076    0.0020    0.0000
      172 MO     7h0       -0.0000   -0.0000    0.0000    0.0006   -0.0005   -0.0000    0.0000    0.0002   -0.0003    0.0000
      173 MO     6h1+      -0.0000   -0.0000   -0.0009    0.0000   -0.0000    0.0024   -0.0000   -0.0000   -0.0000   -0.0093
      174 MO     7h1+       0.0000    0.0000    0.0005   -0.0000    0.0000   -0.0003    0.0000    0.0000   -0.0000   -0.0040
      175 MO     6h2+      -0.0000    0.0000    0.0002   -0.0000   -0.0000   -0.0039    0.0000   -0.0000   -0.0000   -0.0104
      176 MO     7h2+       0.0000   -0.0000   -0.0001    0.0000   -0.0000    0.0000   -0.0000   -0.0000   -0.0000   -0.0042
      177 MO     6h3+      -0.0000    0.0000    0.0000   -0.0003    0.0059    0.0000   -0.0000    0.0138   -0.0013    0.0000
      178 MO     7h3+      -0.0000   -0.0000   -0.0000    0.0001   -0.0007    0.0000   -0.0000    0.0003   -0.0014   -0.0000
      179 MO     6h4+      -0.0000   -0.0000   -0.0006    0.0000   -0.0000    0.0124   -0.0000   -0.0000   -0.0000   -0.0051
      180 MO     7h4+       0.0000    0.0000    0.0004   -0.0000    0.0000    0.0001   -0.0000    0.0000    0.0000   -0.0021
      181 MO     6h5+      -0.0000    0.0000    0.0002   -0.0000   -0.0000   -0.0024    0.0000   -0.0000   -0.0000   -0.0130
      182 MO     7h5+       0.0000   -0.0000   -0.0001    0.0000   -0.0000    0.0001   -0.0000   -0.0000   -0.0000   -0.0052

          Orbital           21        22        23        24        25        26        27        28        29        30    
          Energy           -0.3981   -0.3290   -0.3290   -0.3053   -0.2831   -0.2766   -0.2766   -0.1992   -0.1775   -0.1775
          Occ. No.          0.0000    0.0000    0.0000    0.0000    0.0000    0.0000    0.0000    0.0000    0.0000    0.0000

        1 MO     1s        -0.0000   -0.0000    0.0000   -0.0000   -0.0000    0.0000    0.0000    0.0000    0.0000   -0.0000
        2 MO     2s        -0.0000    0.0000    0.0000   -0.0000   -0.0000    0.0000   -0.0000    0.0000   -0.0000    0.0000
        3 MO     3s         0.0000   -0.0000   -0.0000    0.0001    0.0001   -0.0000   -0.0000   -0.0002    0.0000   -0.0000
        4 MO     4s        -0.0000   -0.0000   -0.0000    0.0050    0.0151   -0.0000   -0.0000    0.0058    0.0000   -0.0000
        5 MO     5s        -0.0000   -0.0000   -0.0000   -0.1111    0.1615   -0.0000   -0.0000   -0.1391   -0.0000    0.0000
        6 MO     6s         0.0000    0.0000    0.0000    0.0053    0.0843   -0.0000   -0.0000   -0.9551   -0.0000    0.0000
        7 MO     7s         0.0000   -0.0000   -0.0000    0.0008   -0.0254    0.0000    0.0000   -0.1703   -0.0000    0.0000
        8 MO     8s         0.0000   -0.0000   -0.0000    0.0040   -0.0193    0.0000    0.0000   -0.0654   -0.0000    0.0000
        9 MO     9s         0.0000   -0.0000   -0.0000    0.0012   -0.0065    0.0000    0.0000   -0.0081   -0.0000    0.0000
       10 MO    10s        -0.0000    0.0000   -0.0000    0.0000   -0.0007    0.0000   -0.0000    0.0005   -0.0000    0.0000
       11 MO     2px       -0.0000    0.0000    0.0000    0.0000    0.0000    0.0000    0.0000    0.0000    0.0000   -0.0000
       12 MO     3px        0.0000   -0.0005   -0.0000   -0.0000   -0.0000   -0.0006   -0.0000   -0.0000   -0.0000    0.0000
       13 MO     4px        0.0000   -0.0142   -0.0000   -0.0000   -0.0000   -0.0835   -0.0000   -0.0000   -0.0038    0.0000
       14 MO     5px        0.0000    0.9171    0.0000   -0.0000   -0.0000   -0.3306   -0.0000    0.0000   -0.0139    0.0000
       15 MO     6px        0.0000    0.1626    0.0000   -0.0000   -0.0000   -0.1427   -0.0000   -0.0000    0.0072   -0.0000
       16 MO     7px       -0.0000    0.0438    0.0000   -0.0000   -0.0000   -0.0585   -0.0000   -0.0000    0.0125   -0.0000
       17 MO     8px       -0.0000   -0.0172   -0.0000    0.0000   -0.0000   -0.0106   -0.0000   -0.0000    0.0061   -0.0000
       18 MO     9px       -0.0000   -0.0136   -0.0000    0.0000   -0.0000   -0.0021   -0.0000   -0.0000    0.0023   -0.0000
       19 MO    10px       -0.0000   -0.0023   -0.0000    0.0000    0.0000   -0.0001   -0.0000   -0.0000    0.0003   -0.0000
       20 MO     2py        0.0000   -0.0000    0.0000    0.0000    0.0000   -0.0000    0.0000   -0.0000   -0.0000   -0.0000
       21 MO     3py       -0.0000    0.0000   -0.0005    0.0000   -0.0000    0.0000   -0.0006   -0.0000    0.0000    0.0000
       22 MO     4py       -0.0072    0.0000   -0.0142    0.0000   -0.0000    0.0000   -0.0835   -0.0000    0.0000    0.0038
       23 MO     5py       -0.0370   -0.0000    0.9171    0.0000   -0.0000    0.0000   -0.3306    0.0000    0.0000    0.0139
       24 MO     6py       -0.0050   -0.0000    0.1626    0.0000   -0.0000    0.0000   -0.1427   -0.0000   -0.0000   -0.0072
       25 MO     7py        0.0031   -0.0000    0.0438    0.0000   -0.0000    0.0000   -0.0585    0.0000   -0.0000   -0.0125
       26 MO     8py        0.0016    0.0000   -0.0172    0.0000   -0.0000    0.0000   -0.0106   -0.0000   -0.0000   -0.0061
       27 MO     9py        0.0003    0.0000   -0.0136    0.0000   -0.0000    0.0000   -0.0021    0.0000   -0.0000   -0.0023
       28 MO    10py        0.0000    0.0000   -0.0023    0.0000   -0.0000    0.0000   -0.0001    0.0000   -0.0000   -0.0003
       29 MO     2pz       -0.0000   -0.0000   -0.0000    0.0000   -0.0000    0.0000    0.0000    0.0000    0.0000    0.0000
       30 MO     3pz        0.0000    0.0000   -0.0000   -0.0003    0.0005   -0.0000    0.0000    0.0000   -0.0000    0.0000
       31 MO     4pz        0.0000    0.0000    0.0000    0.0286    0.0495   -0.0000   -0.0000   -0.0009   -0.0000    0.0000
       32 MO     5pz       -0.0000    0.0000    0.0000    0.9089   -0.2812   -0.0000    0.0000   -0.0141    0.0000    0.0000
       33 MO     6pz       -0.0000    0.0000    0.0000    0.2370   -0.0556   -0.0000    0.0000   -0.0786   -0.0000    0.0000
       34 MO     7pz       -0.0000    0.0000    0.0000    0.0917   -0.0404   -0.0000    0.0000   -0.0794   -0.0000   -0.0000
       35 MO     8pz       -0.0000   -0.0000   -0.0000   -0.0019   -0.0026   -0.0000    0.0000   -0.0338   -0.0000   -0.0000
       36 MO     9pz       -0.0000   -0.0000   -0.0000   -0.0083    0.0033   -0.0000   -0.0000   -0.0123   -0.0000   -0.0000
       37 MO    10pz        0.0000   -0.0000   -0.0000   -0.0016    0.0006   -0.0000   -0.0000   -0.0018   -0.0000   -0.0000
       38 MO     3d2-       0.0015   -0.0000    0.0006    0.0000    0.0000   -0.0000    0.0011   -0.0000   -0.0000   -0.0005
       39 MO     4d2-       0.8470   -0.0000    0.1763    0.0000    0.0000   -0.0000    0.3775   -0.0000   -0.0000   -0.0972
       40 MO     5d2-       0.1410   -0.0000    0.0913    0.0000    0.0000   -0.0000    0.1997    0.0000    0.0000    0.4215
       41 MO     6d2-       0.0492   -0.0000    0.0374   -0.0000    0.0000   -0.0000    0.1270    0.0000    0.0000    0.5443
       42 MO     7d2-      -0.0109   -0.0000    0.0019   -0.0000    0.0000   -0.0000    0.0327    0.0000    0.0000    0.4701
       43 MO     8d2-      -0.0084    0.0000   -0.0033   -0.0000    0.0000    0.0000   -0.0036    0.0000    0.0000    0.2045
       44 MO     9d2-      -0.0027    0.0000   -0.0041   -0.0000    0.0000    0.0000   -0.0136    0.0000    0.0000    0.0277
       45 MO    10d2-       0.0015    0.0000   -0.0005    0.0000    0.0000    0.0000   -0.0024    0.0000   -0.0000   -0.0128
       46 MO    11d2-      -0.0002    0.0000   -0.0002    0.0000    0.0000    0.0000   -0.0006    0.0000   -0.0000   -0.0012
       47 MO     3d1-      -0.0009   -0.0000    0.0009   -0.0000    0.0000   -0.0000    0.0021    0.0000    0.0000    0.0003
       48 MO     4d1-      -0.4937   -0.0000    0.2398   -0.0000    0.0000   -0.0000    0.7021   -0.0000    0.0000    0.0420
       49 MO     5d1-      -0.0769   -0.0000    0.1562    0.0000    0.0000   -0.0000    0.3200    0.0000   -0.0000   -0.2481
       50 MO     6d1-      -0.0271   -0.0000    0.0717    0.0000    0.0000   -0.0000    0.2013    0.0000   -0.0000   -0.3157
       51 MO     7d1-       0.0052   -0.0000    0.0083    0.0000    0.0000   -0.0000    0.0504    0.0000   -0.0000   -0.2700
       52 MO     8d1-       0.0052    0.0000   -0.0068    0.0000   -0.0000    0.0000   -0.0068    0.0000   -0.0000   -0.1175
       53 MO     9d1-       0.0017    0.0000   -0.0084   -0.0000   -0.0000    0.0000   -0.0215    0.0000   -0.0000   -0.0157
       54 MO    10d1-      -0.0010    0.0000   -0.0009   -0.0000   -0.0000    0.0000   -0.0034    0.0000    0.0000    0.0075
       55 MO    11d1-       0.0000    0.0000   -0.0003   -0.0000   -0.0000    0.0000   -0.0009    0.0000    0.0000    0.0007
       56 MO     3d0        0.0000    0.0000    0.0000    0.0007    0.0024   -0.0000   -0.0000   -0.0000    0.0000   -0.0000
       57 MO     4d0        0.0000    0.0000    0.0000    0.2707    0.8278   -0.0000   -0.0000    0.0455    0.0000   -0.0000
       58 MO     5d0        0.0000    0.0000    0.0000    0.1153    0.3675   -0.0000   -0.0000    0.0685   -0.0000    0.0000
       59 MO     6d0        0.0000    0.0000   -0.0000    0.0790    0.2210   -0.0000   -0.0000    0.0887   -0.0000    0.0000
       60 MO     7d0        0.0000    0.0000   -0.0000    0.0179    0.0503   -0.0000   -0.0000    0.0622   -0.0000    0.0000
       61 MO     8d0        0.0000   -0.0000    0.0000   -0.0058   -0.0095    0.0000    0.0000    0.0202   -0.0000    0.0000
       62 MO     9d0        0.0000   -0.0000    0.0000   -0.0090   -0.0240    0.0000    0.0000   -0.0019   -0.0000    0.0000
       63 MO    10d0        0.0000   -0.0000   -0.0000   -0.0008   -0.0036    0.0000    0.0000   -0.0024    0.0000   -0.0000
       64 MO    11d0        0.0000   -0.0000    0.0000   -0.0003   -0.0010    0.0000    0.0000   -0.0003    0.0000   -0.0000
       65 MO     3d1+       0.0000    0.0009    0.0000    0.0000    0.0000    0.0021    0.0000    0.0000   -0.0003    0.0000
       66 MO     4d1+       0.0000    0.2398    0.0000    0.0000    0.0000    0.7021    0.0000   -0.0000   -0.0420    0.0000
       67 MO     5d1+       0.0000    0.1562    0.0000    0.0000    0.0000    0.3200    0.0000    0.0000    0.2481   -0.0000
       68 MO     6d1+       0.0000    0.0717    0.0000    0.0000    0.0000    0.2013    0.0000   -0.0000    0.3157   -0.0000
       69 MO     7d1+      -0.0000    0.0083    0.0000    0.0000    0.0000    0.0504    0.0000   -0.0000    0.2700   -0.0000
       70 MO     8d1+      -0.0000   -0.0068   -0.0000   -0.0000   -0.0000   -0.0068   -0.0000   -0.0000    0.1175   -0.0000
       71 MO     9d1+      -0.0000   -0.0084   -0.0000   -0.0000   -0.0000   -0.0215   -0.0000   -0.0000    0.0157   -0.0000
       72 MO    10d1+       0.0000   -0.0009   -0.0000   -0.0000   -0.0000   -0.0034   -0.0000    0.0000   -0.0075    0.0000
       73 MO    11d1+      -0.0000   -0.0003   -0.0000   -0.0000   -0.0000   -0.0009   -0.0000    0.0000   -0.0007    0.0000
       74 MO     3d2+       0.0000   -0.0006   -0.0000   -0.0000   -0.0000   -0.0011   -0.0000    0.0000   -0.0005    0.0000
       75 MO     4d2+       0.0000   -0.1763   -0.0000   -0.0000   -0.0000   -0.3775   -0.0000   -0.0000   -0.0972    0.0000
       76 MO     5d2+       0.0000   -0.0913   -0.0000   -0.0000   -0.0000   -0.1997   -0.0000   -0.0000    0.4215   -0.0000
       77 MO     6d2+       0.0000   -0.0374   -0.0000   -0.0000   -0.0000   -0.1270   -0.0000   -0.0000    0.5443   -0.0000
       78 MO     7d2+      -0.0000   -0.0019   -0.0000   -0.0000   -0.0000   -0.0327   -0.0000   -0.0000    0.4701   -0.0000
       79 MO     8d2+      -0.0000    0.0033    0.0000    0.0000    0.0000    0.0036    0.0000   -0.0000    0.2045   -0.0000
       80 MO     9d2+      -0.0000    0.0041    0.0000    0.0000    0.0000    0.0136    0.0000    0.0000    0.0277   -0.0000
       81 MO    10d2+       0.0000    0.0005    0.0000    0.0000    0.0000    0.0024    0.0000    0.0000   -0.0128    0.0000
       82 MO    11d2+      -0.0000    0.0002    0.0000    0.0000    0.0000    0.0006    0.0000    0.0000   -0.0012    0.0000
       83 MO     4f3-      -0.0000   -0.0000    0.0000   -0.0000   -0.0000    0.0000   -0.0000    0.0000    0.0000    0.0000
       84 MO     5f3-      -0.0000    0.0000   -0.0000    0.0000   -0.0000   -0.0000    0.0000   -0.0000   -0.0000   -0.0000
       85 MO     6f3-      -0.0000    0.0000   -0.0000   -0.0000   -0.0000   -0.0000    0.0000   -0.0000   -0.0000   -0.0000
       86 MO     7f3-      -0.0000    0.0000   -0.0000   -0.0000   -0.0000   -0.0000    0.0000   -0.0000   -0.0000   -0.0000
       87 MO     8f3-       0.0000   -0.0000    0.0000    0.0000   -0.0000    0.0000   -0.0000    0.0000    0.0000    0.0000
       88 MO     9f3-       0.0000   -0.0000    0.0000    0.0000    0.0000   -0.0000    0.0000   -0.0000    0.0000    0.0000
       89 MO     4f2-       0.0754   -0.0000    0.0347   -0.0000    0.0000   -0.0000    0.1177   -0.0000   -0.0000   -0.0212
       90 MO     5f2-      -0.0265    0.0000   -0.0062    0.0000   -0.0000    0.0000   -0.0516    0.0000   -0.0000   -0.0077
       91 MO     6f2-      -0.0088    0.0000   -0.0031    0.0000   -0.0000    0.0000   -0.0254   -0.0000   -0.0000   -0.0188
       92 MO     7f2-      -0.0049    0.0000   -0.0037    0.0000   -0.0000    0.0000   -0.0191   -0.0000   -0.0000   -0.0196
       93 MO     8f2-       0.0012   -0.0000    0.0008    0.0000    0.0000   -0.0000    0.0088    0.0000    0.0000    0.0183
       94 MO     9f2-      -0.0007    0.0000   -0.0007    0.0000   -0.0000    0.0000   -0.0008    0.0000    0.0000    0.0016
       95 MO     4f1-      -0.0280    0.0000   -0.0018   -0.0000    0.0000   -0.0000    0.0297   -0.0000    0.0000    0.0028
       96 MO     5f1-       0.0117   -0.0000    0.0084    0.0000   -0.0000    0.0000   -0.0240    0.0000    0.0000    0.0094
       97 MO     6f1-       0.0049   -0.0000    0.0044    0.0000   -0.0000    0.0000   -0.0188    0.0000    0.0000    0.0148
       98 MO     7f1-       0.0022   -0.0000    0.0017    0.0000   -0.0000    0.0000   -0.0131    0.0000    0.0000    0.0151
       99 MO     8f1-      -0.0006    0.0000   -0.0005   -0.0000    0.0000   -0.0000    0.0073   -0.0000   -0.0000   -0.0136
      100 MO     9f1-       0.0002    0.0000   -0.0002    0.0000    0.0000   -0.0000    0.0001   -0.0000   -0.0000   -0.0010
      101 MO     4f0        0.0000   -0.0000    0.0000   -0.0212   -0.0443    0.0000    0.0000   -0.0311   -0.0000    0.0000
      102 MO     5f0       -0.0000    0.0000    0.0000    0.0137   -0.0015    0.0000    0.0000    0.0248    0.0000   -0.0000
      103 MO     6f0        0.0000    0.0000    0.0000    0.0074   -0.0107    0.0000    0.0000    0.0045    0.0000   -0.0000
      104 MO     7f0       -0.0000    0.0000    0.0000    0.0049   -0.0047    0.0000    0.0000   -0.0011    0.0000   -0.0000
      105 MO     8f0        0.0000   -0.0000   -0.0000   -0.0017    0.0042   -0.0000   -0.0000    0.0023   -0.0000    0.0000
      106 MO     9f0        0.0000   -0.0000   -0.0000    0.0001    0.0010   -0.0000   -0.0000   -0.0002   -0.0000    0.0000
      107 MO     4f1+       0.0000   -0.0018   -0.0000    0.0000    0.0000    0.0297    0.0000   -0.0000   -0.0028    0.0000
      108 MO     5f1+      -0.0000    0.0084    0.0000   -0.0000   -0.0000   -0.0240   -0.0000    0.0000   -0.0094    0.0000
      109 MO     6f1+      -0.0000    0.0044    0.0000   -0.0000   -0.0000   -0.0188   -0.0000   -0.0000   -0.0148    0.0000
      110 MO     7f1+      -0.0000    0.0017    0.0000   -0.0000   -0.0000   -0.0131   -0.0000   -0.0000   -0.0151    0.0000
      111 MO     8f1+       0.0000   -0.0005   -0.0000    0.0000    0.0000    0.0073    0.0000    0.0000    0.0136   -0.0000
      112 MO     9f1+      -0.0000   -0.0002   -0.0000    0.0000    0.0000    0.0001    0.0000    0.0000    0.0010   -0.0000
      113 MO     4f2+       0.0000   -0.0347   -0.0000   -0.0000   -0.0000   -0.1177   -0.0000   -0.0000   -0.0212    0.0000
      114 MO     5f2+      -0.0000    0.0062    0.0000    0.0000    0.0000    0.0516    0.0000    0.0000   -0.0077    0.0000
      115 MO     6f2+      -0.0000    0.0031    0.0000   -0.0000    0.0000    0.0254    0.0000    0.0000   -0.0188    0.0000
      116 MO     7f2+      -0.0000    0.0037    0.0000   -0.0000    0.0000    0.0191    0.0000    0.0000   -0.0196    0.0000
      117 MO     8f2+       0.0000   -0.0008   -0.0000    0.0000   -0.0000   -0.0088   -0.0000   -0.0000    0.0183   -0.0000
      118 MO     9f2+      -0.0000    0.0007    0.0000    0.0000    0.0000    0.0008    0.0000   -0.0000    0.0016   -0.0000
      119 MO     4f3+       0.0000    0.0000    0.0000    0.0257    0.0494   -0.0000   -0.0000   -0.0176    0.0000   -0.0000
      120 MO     5f3+      -0.0000   -0.0000   -0.0000   -0.0186   -0.0162    0.0000    0.0000    0.0149   -0.0000    0.0000
      121 MO     6f3+      -0.0000   -0.0000   -0.0000   -0.0074   -0.0066    0.0000    0.0000    0.0036   -0.0000    0.0000
      122 MO     7f3+      -0.0000   -0.0000   -0.0000   -0.0037   -0.0050    0.0000    0.0000    0.0006   -0.0000    0.0000
      123 MO     8f3+       0.0000    0.0000    0.0000    0.0019    0.0020   -0.0000   -0.0000    0.0001    0.0000   -0.0000
      124 MO     9f3+      -0.0000   -0.0000   -0.0000    0.0002   -0.0005   -0.0000    0.0000   -0.0002    0.0000   -0.0000
      125 MO     5g4-      -0.0037   -0.0000    0.0015   -0.0000    0.0000   -0.0000    0.0196   -0.0000    0.0000    0.0006
      126 MO     6g4-      -0.0015    0.0000   -0.0069   -0.0000    0.0000   -0.0000    0.0091   -0.0000   -0.0000   -0.0002
      127 MO     7g4-      -0.0000    0.0000   -0.0042   -0.0000    0.0000   -0.0000    0.0009   -0.0000   -0.0000   -0.0004
      128 MO     8g4-       0.0001    0.0000   -0.0006   -0.0000    0.0000   -0.0000    0.0008    0.0000   -0.0000   -0.0002
      129 MO     5g3-      -0.0000   -0.0000    0.0000    0.0000    0.0000   -0.0000    0.0000    0.0000   -0.0000   -0.0000
      130 MO     6g3-      -0.0000    0.0000   -0.0000    0.0000   -0.0000   -0.0000    0.0000    0.0000    0.0000    0.0000
      131 MO     7g3-      -0.0000    0.0000   -0.0000    0.0000   -0.0000   -0.0000    0.0000    0.0000   -0.0000   -0.0000
      132 MO     8g3-       0.0000   -0.0000    0.0000   -0.0000   -0.0000   -0.0000    0.0000   -0.0000   -0.0000   -0.0000
      133 MO     5g2-      -0.0039    0.0000   -0.0053   -0.0000   -0.0000    0.0000   -0.0138    0.0000    0.0000    0.0011
      134 MO     6g2-      -0.0023    0.0000   -0.0026   -0.0000   -0.0000    0.0000   -0.0053    0.0000   -0.0000   -0.0002
      135 MO     7g2-      -0.0007    0.0000   -0.0007   -0.0000   -0.0000   -0.0000    0.0003   -0.0000   -0.0000   -0.0008
      136 MO     8g2-      -0.0002    0.0000   -0.0005   -0.0000   -0.0000    0.0000   -0.0003   -0.0000   -0.0000   -0.0003
      137 MO     5g1-       0.0171    0.0000   -0.0042   -0.0000   -0.0000   -0.0000    0.0030   -0.0000   -0.0000   -0.0053
      138 MO     6g1-       0.0075    0.0000   -0.0123   -0.0000   -0.0000    0.0000   -0.0010   -0.0000   -0.0000   -0.0009
      139 MO     7g1-       0.0004    0.0000   -0.0064   -0.0000   -0.0000    0.0000   -0.0019    0.0000    0.0000    0.0013
      140 MO     8g1-       0.0002    0.0000   -0.0011   -0.0000   -0.0000   -0.0000    0.0001   -0.0000    0.0000    0.0005
      141 MO     5g0       -0.0000   -0.0000   -0.0000   -0.0182   -0.0323    0.0000    0.0000   -0.0023   -0.0000    0.0000
      142 MO     6g0       -0.0000   -0.0000   -0.0000   -0.0197   -0.0104    0.0000    0.0000   -0.0029   -0.0000    0.0000
      143 MO     7g0       -0.0000   -0.0000   -0.0000   -0.0073    0.0004    0.0000    0.0000   -0.0010    0.0000   -0.0000
      144 MO     8g0       -0.0000   -0.0000   -0.0000   -0.0017   -0.0013    0.0000    0.0000   -0.0001    0.0000   -0.0000
      145 MO     5g1+      -0.0000   -0.0042   -0.0000    0.0000    0.0000    0.0030    0.0000    0.0000    0.0053   -0.0000
      146 MO     6g1+      -0.0000   -0.0123   -0.0000   -0.0000   -0.0000   -0.0010   -0.0000    0.0000    0.0009   -0.0000
      147 MO     7g1+      -0.0000   -0.0064   -0.0000   -0.0000   -0.0000   -0.0019   -0.0000   -0.0000   -0.0013    0.0000
[...]
         2   12       3.06717625E-01  1.44495675E-05  4.41054378E-14  1.86107060E+08  1.86107060E+08
         2   14       2.18331685E-02  4.23474125E-05  6.05911873E-15  1.71409641E+07  1.71409641E+07
         2   16       4.44858307E-02  3.80997372E+07  9.78947165E-03  1.62008399E-05  3.80997372E+07
         2   18       4.44858553E-02  9.78965746E-03  3.80997681E+07  2.63838303E-14  3.80997681E+07
         3    7       3.59402064E-02  5.11515871E+06  5.50309279E-01  1.53462085E+06  6.64978012E+06
         3    9       2.76461449E-02  5.50307160E-01  5.11518445E+06  9.10220871E-02  5.11518509E+06
         3   11       1.43565169E-02  4.61337490E+06  8.22697298E-03  3.11004975E-05  4.61337491E+06
         3   13       4.14682453E-04  1.88363177E+05  3.35897864E-04  9.78777057E-08  1.88363177E+05
         3   15       1.53868546E-02  5.62382715E+06  3.86024848E-03  2.20630263E+06  7.83012978E+06
         3   17       1.10513183E-02  3.86024558E-03  5.62384501E+06  7.48832837E-03  5.62384502E+06
         4    8       3.59402064E-02  5.11515871E+06  5.50309279E-01  1.53462085E+06  6.64978012E+06
         4   10       2.76461449E-02  5.50307160E-01  5.11518445E+06  9.10220871E-02  5.11518509E+06
         4   12       1.43565169E-02  4.61337490E+06  8.22697298E-03  3.11004975E-05  4.61337491E+06
         4   14       4.14682453E-04  1.88363177E+05  3.35897864E-04  9.78777057E-08  1.88363177E+05
         4   16       1.53868546E-02  5.62382715E+06  3.86024848E-03  2.20630263E+06  7.83012978E+06
         4   18       1.10513183E-02  3.86024558E-03  5.62384501E+06  7.48832837E-03  5.62384502E+06
         5    7       2.76460824E-02  5.50307965E-01  5.11517041E+06  9.10218703E-02  5.11517105E+06
         5    9       3.59402709E-02  5.11517202E+06  5.50308425E-01  1.53461794E+06  6.64979051E+06
         5   11       1.43565393E-02  8.22694806E-03  4.61338085E+06  6.18673569E-14  4.61338086E+06
         5   13       4.14671810E-04  3.35903213E-04  1.88358299E+05  5.14070293E-17  1.88358300E+05
         5   15       1.10512782E-02  3.86025685E-03  5.62382149E+06  7.48828568E-03  5.62382150E+06
         5   17       1.53868737E-02  5.62383450E+06  3.86024645E-03  2.20630597E+06  7.83014047E+06
         6    8       2.76460824E-02  5.50307965E-01  5.11517041E+06  9.10218703E-02  5.11517105E+06
         6   10       3.59402709E-02  5.11517202E+06  5.50308425E-01  1.53461794E+06  6.64979051E+06
         6   12       1.43565393E-02  8.22694806E-03  4.61338085E+06  6.18673569E-14  4.61338086E+06
         6   14       4.14671810E-04  3.35903213E-04  1.88358299E+05  5.14070293E-17  1.88358300E+05
         6   16       1.10512782E-02  3.86025685E-03  5.62382149E+06  7.48828568E-03  5.62382150E+06
         6   18       1.53868737E-02  5.62383450E+06  3.86024645E-03  2.20630597E+06  7.83014047E+06
         7   13       4.93899645E-03  2.93628594E+05  2.39789839E-02  2.93589975E-06  2.93628618E+05
         7   15       3.86536980E-02  8.85044155E+05  6.43962694E-02  2.21545916E+06  3.10050338E+06
         7   17       1.10337982E-02  6.43960827E-02  8.85047204E+05  2.01791123E-01  8.85047471E+05
         8   14       4.93899645E-03  2.93628594E+05  2.39789839E-02  2.93589975E-06  2.93628618E+05
         8   16       3.86536980E-02  8.85044155E+05  6.43962694E-02  2.21545916E+06  3.10050338E+06
         8   18       1.10337982E-02  6.43960827E-02  8.85047204E+05  2.01791123E-01  8.85047471E+05
         9   13       4.93897499E-03  2.39790791E-02  2.93627253E+05  2.31108198E-13  2.93627277E+05
         9   15       1.10338321E-02  6.43958663E-02  8.85049005E+05  2.01791050E-01  8.85049271E+05
         9   17       3.86537089E-02  8.85046439E+05  6.43961059E-02  2.21545978E+06  3.10050629E+06
        10   14       4.93897499E-03  2.39790791E-02  2.93627253E+05  2.31108198E-13  2.93627277E+05
        10   16       1.10338321E-02  6.43958663E-02  8.85049005E+05  2.01791050E-01  8.85049271E+05
        10   18       3.86537089E-02  8.85046439E+05  6.43961059E-02  2.21545978E+06  3.10050629E+06
        11   13       3.79178255E-02  3.09983679E-07  2.43954909E-17  4.34913674E+05  4.34913674E+05
        11   15       3.07781168E-02  6.60473350E+05  1.69706017E-04  2.72637189E-06  6.60473350E+05
        11   17       3.07781283E-02  1.69706666E-04  6.60474678E+05  4.25211188E-16  6.60474678E+05
        12   14       3.79178255E-02  3.09983679E-07  2.43954909E-17  4.34913674E+05  4.34913674E+05
        12   16       3.07781168E-02  6.60473350E+05  1.69706017E-04  2.72637189E-06  6.60473350E+05
        12   18       3.07781283E-02  1.69706666E-04  6.60474678E+05  4.25211188E-16  6.60474678E+05
        13   15       3.26574655E-04  5.06753631E+02  1.30209882E-07  1.68436303E-10  5.06753631E+02
        13   17       3.26577185E-04  1.30209163E-07  5.06760643E+02  7.39646785E-18  5.06760644E+02
        14   16       3.26574655E-04  5.06753631E+02  1.30209882E-07  1.68436303E-10  5.06753631E+02
        14   18       3.26577185E-04  1.30209163E-07  5.06760643E+02  7.39646785E-18  5.06760644E+02
     -----------------------------------------------------------------------------------------------
--

++ Velocity transition strengths (SO states):
   ------------------------------------------
    for osc. strength at least    1.0000000000000001E-005

      From   To        Osc. strength     Einstein coefficients Ax, Ay, Az (sec-1)    Total A (sec-1)
     -----------------------------------------------------------------------------------------------
         1    3       5.70548739E-04  2.56628341E+04  4.57637646E-05  7.06991496E-08  2.56628342E+04
         1    5       5.70544408E-04  4.57640815E-05  2.56626579E+04  2.76176093E-16  2.56626580E+04
         1    7       3.18271595E-01  1.31272980E+08  1.07203598E+01  4.53276078E-06  1.31272990E+08
         1    9       3.18271392E-01  1.07203680E+01  1.31272907E+08  4.90761704E-13  1.31272918E+08
         1   11       2.99088436E-01  1.45096694E-05  3.31453787E-14  1.81478528E+08  1.81478528E+08
         1   13       1.99606881E-02  3.92229826E-05  1.32713222E-15  1.56709563E+07  1.56709563E+07
         1   15       4.08817062E-02  3.50131188E+07  8.99642345E-03  1.58919942E-05  3.50131188E+07
         1   17       4.08817313E-02  8.99653292E-03  3.50131494E+07  2.31690657E-14  3.50131494E+07
         2    4       5.70548739E-04  2.56628341E+04  4.57637646E-05  7.06991496E-08  2.56628342E+04
         2    6       5.70544408E-04  4.57640815E-05  2.56626579E+04  2.76176093E-16  2.56626580E+04
         2    8       3.18271595E-01  1.31272980E+08  1.07203598E+01  4.53276078E-06  1.31272990E+08
         2   10       3.18271392E-01  1.07203680E+01  1.31272907E+08  4.90761704E-13  1.31272918E+08
         2   12       2.99088436E-01  1.45096694E-05  3.31453787E-14  1.81478528E+08  1.81478528E+08
         2   14       1.99606881E-02  3.92229826E-05  1.32713222E-15  1.56709563E+07  1.56709563E+07
         2   16       4.08817062E-02  3.50131188E+07  8.99642345E-03  1.58919942E-05  3.50131188E+07
         2   18       4.08817313E-02  8.99653292E-03  3.50131494E+07  2.31690657E-14  3.50131494E+07
         3    7       1.90973097E-02  2.68943148E+06  2.89340406E-01  8.44030187E+05  3.53346195E+06
         3    9       1.45356784E-02  2.89338772E-01  2.68945037E+06  5.00615094E-02  2.68945071E+06
         3   11       9.12107150E-03  2.93100820E+06  5.22681734E-03  2.78276418E-05  2.93100821E+06
         3   13       4.14094295E-04  1.88096669E+05  3.35421449E-04  1.77090809E-07  1.88096670E+05
         3   15       1.23235117E-02  4.72114620E+06  3.24063215E-03  1.55011810E+06  6.27126430E+06
         3   17       9.27744013E-03  3.24064286E-03  4.72116226E+06  5.26118842E-03  4.72116227E+06
         4    8       1.90973097E-02  2.68943148E+06  2.89340406E-01  8.44030187E+05  3.53346195E+06
         4   10       1.45356784E-02  2.89338772E-01  2.68945037E+06  5.00615094E-02  2.68945071E+06
         4   12       9.12107150E-03  2.93100820E+06  5.22681734E-03  2.78276418E-05  2.93100821E+06
         4   14       4.14094295E-04  1.88096669E+05  3.35421449E-04  1.77090809E-07  1.88096670E+05
         4   16       1.23235117E-02  4.72114620E+06  3.24063215E-03  1.55011810E+06  6.27126430E+06
         4   18       9.27744013E-03  3.24064286E-03  4.72116226E+06  5.26118842E-03  4.72116227E+06
         5    7       1.45356308E-02  2.89339381E-01  2.68944025E+06  5.00613247E-02  2.68944059E+06
         5    9       1.90973577E-02  2.68944125E+06  2.89339642E-01  8.44028467E+05  3.53347001E+06
         5   11       9.12108755E-03  5.22682781E-03  2.93101256E+06  6.45135556E-14  2.93101257E+06
         5   13       4.14084405E-04  3.35429595E-04  1.88092134E+05  4.92766937E-16  1.88092134E+05
         5   15       9.27740605E-03  3.24063694E-03  4.72114231E+06  5.26117992E-03  4.72114232E+06
         5   17       1.23235289E-02  4.72115267E+06  3.24064496E-03  1.55012113E+06  6.27127381E+06
         6    8       1.45356308E-02  2.89339381E-01  2.68944025E+06  5.00613247E-02  2.68944059E+06
         6   10       1.90973577E-02  2.68944125E+06  2.89339642E-01  8.44028467E+05  3.53347001E+06
         6   12       9.12108755E-03  5.22682781E-03  2.93101256E+06  6.45135556E-14  2.93101257E+06
         6   14       4.14084405E-04  3.35429595E-04  1.88092134E+05  4.92766937E-16  1.88092134E+05
         6   16       9.27740605E-03  3.24063694E-03  4.72114231E+06  5.26117992E-03  4.72114232E+06
         6   18       1.23235289E-02  4.72115267E+06  3.24064496E-03  1.55012113E+06  6.27127381E+06
         7   11       1.25758261E-03  2.35101115E+04  1.91993911E-03  1.41572574E-07  2.35101134E+04
         7   13       8.92525333E-03  5.30617651E+05  4.33325330E-02  4.59487799E-06  5.30617695E+05
         7   15       5.66446170E-02  1.25052244E+06  9.09886564E-02  3.29309027E+06  4.54361280E+06
         7   17       1.55901425E-02  9.09884017E-02  1.25052676E+06  2.99945245E-01  1.25052715E+06
         8   12       1.25758261E-03  2.35101115E+04  1.91993911E-03  1.41572574E-07  2.35101134E+04
         8   14       8.92525333E-03  5.30617651E+05  4.33325330E-02  4.59487799E-06  5.30617695E+05
         8   16       5.66446170E-02  1.25052244E+06  9.09886564E-02  3.29309027E+06  4.54361280E+06
         8   18       1.55901425E-02  9.09884017E-02  1.25052676E+06  2.99945245E-01  1.25052715E+06
         9   11       1.25757670E-03  1.91994193E-03  2.35099918E+04  9.08218171E-15  2.35099937E+04
         9   13       8.92521647E-03  4.33327262E-02  5.30615342E+05  3.81047319E-13  5.30615386E+05
         9   15       1.55901932E-02  9.09880926E-02  1.25052952E+06  2.99945055E-01  1.25052991E+06
         9   17       5.66446345E-02  1.25052570E+06  9.09884448E-02  3.29309140E+06  4.54361718E+06
        10   12       1.25757670E-03  1.91994193E-03  2.35099918E+04  9.08218171E-15  2.35099937E+04
        10   14       8.92521647E-03  4.33327262E-02  5.30615342E+05  3.81047319E-13  5.30615386E+05
        10   16       1.55901932E-02  9.09880926E-02  1.25052952E+06  2.99945055E-01  1.25052991E+06
        10   18       5.66446345E-02  1.25052570E+06  9.09884448E-02  3.29309140E+06  4.54361718E+06
        11   13       7.43181350E-02  6.90694541E-07  2.52216106E-18  8.52424554E+05  8.52424554E+05
        11   15       4.76565733E-02  1.02267485E+06  2.62772268E-04  4.08556980E-06  1.02267485E+06
        11   17       4.76565740E-02  2.62773208E-04  1.02267654E+06  6.94520059E-16  1.02267654E+06
        12   14       7.43181350E-02  6.90694541E-07  2.52216106E-18  8.52424554E+05  8.52424554E+05
        12   16       4.76565733E-02  1.02267485E+06  2.62772268E-04  4.08556980E-06  1.02267485E+06
        12   18       4.76565740E-02  2.62773208E-04  1.02267654E+06  6.94520059E-16  1.02267654E+06
        13   15       2.79692482E-03  4.34006962E+03  1.11515722E-06  4.44276531E-09  4.34006962E+03
        13   17       2.79692786E-03  1.11517305E-06  4.34010076E+03  1.17601615E-17  4.34010076E+03
        14   16       2.79692482E-03  4.34006962E+03  1.11515722E-06  4.44276531E-09  4.34006962E+03
        14   18       2.79692786E-03  1.11517305E-06  4.34010076E+03  1.17601615E-17  4.34010076E+03
     -----------------------------------------------------------------------------------------------
--

++ Length and velocity gauge comparison (SO states):

 --------------------------------------------------
 A comparison between the dipole oscillator strengths in 
 length and velocity gauge will be performed

 All dipole oscillator differences above the tolerance of   0.10000000000000001       will be printed 

 Due to basis set deficiency these oscillator may be problematic 

 The tolerance is defined as ABS(1-O_l/O_v) 
 O_l : dipole oscillator strength in length gauge
 O_p : dipole oscillator strength in velocity gauge
 --------------------------------------------------

  Problematic transitions have been found

      From   To       Difference (%) Osc. st. (len.) Osc. st. (vel.)
     ---------------------------------------------------------------
         1    3            30.361742  3.97320204E-04  5.70548739E-04
         1    5            30.361794  3.97316889E-04  5.70544408E-04
         2    4            30.361742  3.97320204E-04  5.70548739E-04
         2    6            30.361794  3.97316889E-04  5.70544408E-04
         3    7            88.195128  3.59402064E-02  1.90973097E-02
         3    9            90.195078  2.76461449E-02  1.45356784E-02
         3   11            57.399455  1.43565169E-02  9.12107150E-03
         3   15            24.857710  1.53868546E-02  1.23235117E-02
         3   17            19.120340  1.10513183E-02  9.27744013E-03
         4    8            88.195128  3.59402064E-02  1.90973097E-02
         4   10            90.195078  2.76461449E-02  1.45356784E-02
         4   12            57.399455  1.43565169E-02  9.12107150E-03
         4   16            24.857710  1.53868546E-02  1.23235117E-02
         4   18            19.120340  1.10513183E-02  9.27744013E-03
         5    7            90.195272  2.76460824E-02  1.45356308E-02
         5    9            88.194993  3.59402709E-02  1.90973577E-02
         5   11            57.399424  1.43565393E-02  9.12108755E-03
         5   15            19.120346  1.10512782E-02  9.27740605E-03
         5   17            24.857691  1.53868737E-02  1.23235289E-02
         6    8            90.195272  2.76460824E-02  1.45356308E-02
         6   10            88.194993  3.59402709E-02  1.90973577E-02
         6   12            57.399424  1.43565393E-02  9.12108755E-03
         6   16            19.120346  1.10512782E-02  9.27740605E-03
         6   18            24.857691  1.53868737E-02  1.23235289E-02
         7   11      --------------- below threshold  1.25758261E-03
         7   13            44.662675  4.93899645E-03  8.92525333E-03
         7   15            31.761039  3.86536980E-02  5.66446170E-02
         7   17            29.225803  1.10337982E-02  1.55901425E-02
         8   12      --------------- below threshold  1.25758261E-03
         8   14            44.662675  4.93899645E-03  8.92525333E-03
         8   16            31.761039  3.86536980E-02  5.66446170E-02
         8   18            29.225803  1.10337982E-02  1.55901425E-02
         9   11      --------------- below threshold  1.25757670E-03
         9   13            44.662687  4.93897499E-03  8.92521647E-03
         9   15            29.225815  1.10338321E-02  1.55901932E-02
         9   17            31.761041  3.86537089E-02  5.66446345E-02
        10   12      --------------- below threshold  1.25757670E-03
        10   14            44.662687  4.93897499E-03  8.92521647E-03
        10   16            29.225815  1.10338321E-02  1.55901932E-02
        10   18            31.761041  3.86537089E-02  5.66446345E-02
        11   13            48.979040  3.79178255E-02  7.43181350E-02
        11   15            35.416849  3.07781168E-02  4.76565733E-02
        11   17            35.416826  3.07781283E-02  4.76565740E-02
        12   14            48.979040  3.79178255E-02  7.43181350E-02
        12   16            35.416849  3.07781168E-02  4.76565733E-02
        12   18            35.416826  3.07781283E-02  4.76565740E-02
        13   15            88.323796  3.26574655E-04  2.79692482E-03
        13   17            88.323718  3.26577185E-04  2.79692786E-03
        14   16            88.323796  3.26574655E-04  2.79692482E-03
        14   18            88.323718  3.26577185E-04  2.79692786E-03
     ---------------------------------------------------------------

 Number of problematic transitions =                    50

--

 Electric-dipole - electric-octupole not included
++ I/O STATISTICS
 
  I. General I/O information
  - - - - - - - - - - - - - - - - - - - - - - - - - - - - - - - - - - - - - - - - - - -
  Unit  Name          Flsize      Write/Read            MBytes           Write/Read
                      (MBytes)       Calls              In/Out           Time, sec.
  - - - - - - - - - - - - - - - - - - - - - - - - - - - - - - - - - - - - - - - - - - -
   1  SCRATCH           0.00 .       9/      45 .      0.0/      0.0 .       0/       0
   2  ANNI              0.00 .       0/       0 .      0.0/      0.0 .       0/       0
   3  RUNFILE          14.89 .     322/   10517 .      2.3/     76.3 .       0/       0
   4  ONEINT            5.68 .       0/   24849 .      0.0/   3743.6 .       0/       0
   5  JOBIPH            6.59 .       0/      92 .      0.0/      0.8 .       0/       0
   6  ORDINT          529.03 .       1/    4233 .      0.0/   1058.0 .       0/       0
  - - - - - - - - - - - - - - - - - - - - - - - - - - - - - - - - - - - - - - - - - - -
   *  TOTAL           556.21 .     332/   39736 .      2.3/   4878.7 .       0/       0
  - - - - - - - - - - - - - - - - - - - - - - - - - - - - - - - - - - - - - - - - - - -
 
  II. I/O Access Patterns
  - - - - - - - - - - - - - - - - - - - -
  Unit  Name               % of random
                         Write/Read calls
  - - - - - - - - - - - - - - - - - - - -
   1  SCRATCH             88.9/ 100.0
   2  ANNI                 0.0/   0.0
   3  RUNFILE             28.6/  10.8
   4  ONEINT               0.0/  15.5
   5  JOBIPH               0.0/  76.1
   6  ORDINT             100.0/   0.0
  - - - - - - - - - - - - - - - - - - - -
--
--- Stop Module: rassi at Fri Jan 10 02:24:29 2025 /rc=_RC_ALL_IS_WELL_ ---
*** files: xmldump
    saved to directory /home4/s4752295/Internship/Initial_simulations/Point_charge_model/1_electron/active_space_9_non_rel/Mo/varying_bond_length
--- Module rassi spent 4 seconds ---

.##################.
.# Happy landing! #.
.##################.

    Timing: Wall=61.39 User=46.09 System=9.87

###############################################################################
Hbrk Cluster
Job 14556681 for user s4752295
Finished at: Fri Jan 10 02:24:29 CET 2025

Job details:
============

Job ID                         : 14556681
Name                           : Mo_no_c_light
User                           : s4752295
Partition                      : regularmedium
Nodes                          : node101
Number of Nodes                : 1
Cores                          : 1
Number of Tasks                : 1
State                          : RUNNING  
Submit                         : 2025-01-10T02:23:23
Start                          : 2025-01-10T02:23:23
End                            : --
Reserved walltime              : 15:00:00
Used walltime                  : 00:01:07
Used CPU time                  : -- 
% User (Computation)           : --
% System (I/O)                 : --
Total memory reserved          : 25000M
Maximum memory used            : --

Acknowledgements:
=================

Please see this page for information about acknowledging Hbrk in your publications:

https://wiki.hpc.rug.nl/habrok/introduction/scientific_output

################################################################################
