   This run of MOLCAS is using the pymolcas driver

                             OPE
                             OPE          NMOL  CASOP  ENMOLC A   SO
                 OPE        NMOLC        AS  OP EN  MO LC     AS  OP
                OPENM       OL CA        SO  PE NM  OL CA     SOP EN
                OP EN      MO   LC       AS  OP ENMOL  CASO   PENMOL
                OP  EN     MO   LC       AS  OP EN     MO     LC ASO
               OP   E  NMOL  C  AS       OP  EN MO     LC     AS  OP
               OP  E   NMO   LC AS        OPEN  MO     LCASOP EN   M
               O  PEN   MO  LCA  SO
            OPE   NMO   L   CAS    OP
        OPENMOL  CASOP     ENMOL   CASOPE
     OPENMOLCA   SOPENMOLCASOPEN   MOLCASOPE
    OPENMOLCAS   OP           EN   MOL    CAS
    OPENMOLCAS       OP  ENM        O     LCA
    OPENMOLCAS    OPEN  MOLCASO     P  E  NMO
    OPENMOLCAS     OP               E  N  MOL
    OPENMOLCA   SO           PENM   O  L  CAS    OPEN    MO    LCAS
    OPENMOLCA   SOP           ENM   O  L  CAS   OP  EN  MOLC  AS   O
    OPENMOLCA   SOPE           NM      O  LCA   S      OP  EN MO
    OPENMOLC                AS         O  PEN   M      OL  CA  SOPE
    OPENMO        LCASOPE  NMOL        C  ASO   P      ENMOLC     AS
    OPE     NMO      LCA  SO     P     E   NM   OL  CA SO  PE N   MO
          OPENMOLCA            SOPE   NMO        LCAS  O    P  ENMO
     OPENMOLCASOPENMOLCASOPENMOLCASOPENMOLCA
        OPENMOLCASOPENMOLCASOPENMOLCASOPE
            OPENMOLCASOPENMOLCASOPENM
               OPENMOLCASOPENMOLCA        version: o91e1abe7de707b ?
                   OPENMOLCASO
                       OPE                tag:

 OpenMolcas is free software; you can redistribute it and/or modify it
 under the terms of the GNU Lesser General Public License version 2.1.
 OpenMolcas is distributed in the hope that it will be useful, but it
 is provided "as is" and without any express or implied warranties.
 For more details see the full text of the license in the file
 LICENSE or in <http://www.gnu.org/licenses/>.

                 Copyright (C) The OpenMolcas Authors
           For the author list and the recommended citation,
                   consult the file CONTRIBUTORS.md

           *************************************************
           * pymolcas version py2.10                       *
           *   build 3068ae8b88c9345ec6cfef6fef7f1169      *
           *   (after the EMIL interpreter by V. Veryazov) *
           *************************************************

configuration info
------------------
Host name: login1 (Linux)
C Compiler ID: GNU
C flags: -std=gnu99
Fortran Compiler ID: GNU
Fortran flags: -fno-aggressive-loop-optimizations -cpp -fdefault-integer-8 -fmax-stack-var-size=1048576
Definitions: _MOLCAS_;_I8_;_LINUX_;_MKL_
Parallel: OFF (GA=OFF)


   ----------------------------------------------------------------------------------------------------------------------------------------------
  |
  |           Project: molybdenum_so_cf
  |    Submitted from: /home4/s4752295/Internship/Initial_simulations/Point_charge_model/1_electron/active_space_9_non_rel/Mo/varying_bond_length
  |      Scratch area: /tmp/molybdenum_so_cf
  |   Save outputs to: /home4/s4752295/Internship/Initial_simulations/Point_charge_model/1_electron/active_space_9_non_rel/Mo/varying_bond_length
  |            Molcas: /home4/s4752295/Internship/Molcas/recomp_try/OpenMolcas-master/build
  |
  | Scratch area is empty
  |
  |    MOLCAS_DRIVER = /home4/s4752295/Internship/Molcas/bin/pymolcas
  |    MOLCAS_NPROCS = 1
  |    MOLCAS_SOURCE = /home4/s4752295/Internship/Molcas/recomp_try/OpenMolcas-master
  | MOLCAS_STRUCTURE = 0
  |
   ----------------------------------------------------------------------------------------------------------------------------------------------

++ ---------   Input file   ---------

&SEWARD
AMFi

CLIG
$R

Basis Set
Mo.ANO-rcc.Roos.21s18p13d6f4g2h.10s9p9d6f4g2h.
Spherical d
Mo            0.0       0.0     0.0
End of Basis

Xfield

4
0.000000,  0.00000,  0.3150     -1.0
0.272798,  0.00000, -0.1575     -1.0
-0.136399,  0.23625, -0.1575    -1.0
-0.136399, -0.23625, -0.1575    -1.0

End of input

&SCF
Occupied
18
Iterations
   50  100
End of Input

&RASSCF
LumOrb
Symmetry
1
Spin
2
Nactel
1 0 0
CIRoot
9 9 1
inactive
18
ras2
9
End of Input

>>> COPY molybdenum_so_cf.JobIph $SLURM_SUBMIT_DIR/molybdenum_so_cf.doublet.JobIph

>>> COPY $SLURM_SUBMIT_DIR/molybdenum_so_cf.doublet.JobIph ./JOB002

&RASSI
NROFJobIph
1 All
SpinOrbit
End of Input

EOF

-- ----------------------------------

--- Start Module: seward at Thu Jan  9 20:41:34 2025 ---

()()()()()()()()()()()()()()()()()()()()()()()()()()()()()()()()()()()()()()()()()()()()()()()()()()

                                              &SEWARD

                                   only a single process is used
                       available to each process: 4.1 GB of memory, 1 thread?
                                            pid: 1885279
()()()()()()()()()()()()()()()()()()()()()()()()()()()()()()()()()()()()()()()()()()()()()()()()()()

 The speed of LIGHT in this CALCULATION =   137.03599917700001     
               SEWARD will generate:
                  Multipole Moment integrals up to order  2
                  Kinetic Energy integrals
                  Nuclear Attraction integrals (point charge)
                  One-Electron Hamiltonian integrals
                  Velocity integrals
                  Relativistic Douglas-Kroll-Hess integrals:
                    - Parametrization         : EXP
                    - DKH order of Hamiltonian: 2
                    - DKH order of Properties : 0
                         - multipole moment operators
                         - electric potential operators
                         - contact operators
                  External field from     4 point(s) added to the one-electron Hamiltonian
                  Orbital angular momentum around ( 0.0000  0.0000  0.0000 )
                  Velocity quadrupole around ( 0.0000  0.0000  0.0000 )
                  Atomic mean-field integrals
                  Two-Electron Repulsion integrals

                   Integrals are discarded if absolute value <: 0.10E-13
                   Integral cutoff threshold is set to       <: 0.10E-15

++    Symmetry information:
      ---------------------

                    Character Table for C1 

                             E  
                    a        1  x, y, xy, Rz, z, xz, Ry, yz, Rx, I
--


++    Basis set information:
      ----------------------


      Basis set label: MO.ANO-RCC.ROOS.21S18P13D6F4G2H.10S9P9D6F4G2H......

      Electronic valence basis set:
      ------------------
      Associated Effective Charge  42.000000 au
      Associated Actual Charge     42.000000 au
      Nuclear Model: Point charge

      Shell  nPrim  nBasis  Cartesian Spherical Contaminant
         s      21      10        X                  
         p      18       9        X                  
         d      13       9                 X         
         f       6       6                 X         
         g       4       4                 X         
         h       2       2                 X         
--


++    Molecular structure info:
      -------------------------

                    ************************************************ 
                    **** Cartesian Coordinates / Bohr, Angstrom **** 
                    ************************************************ 

     Center  Label                x              y              z                     x              y              z
        1      MO               0.000000       0.000000       0.000000              0.000000       0.000000       0.000000
--


++    Operator info:
      --------------


  Net charge from external field:   -4.0000000000000000     
--


            Nuclear Potential Energy              0.00000000 au

                    Nuclear-External Field Potential Energy    -533.33333454 au
                    External Field Potential Energy              11.84778037 au 


            Total Nuclear Potential Energy           -533.33333454 au


      Basis set specifications :
      Symmetry species         a  
      Basis functions          182

 Sorry, Molden does not know how to handle
 functions with angular momentum larger than g
Note: The following floating-point exceptions are signalling: IEEE_UNDERFLOW_FLAG IEEE_DENORMAL
--- Stop Module: seward at Thu Jan  9 20:41:46 2025 /rc=_RC_ALL_IS_WELL_ ---
*** files: molybdenum_so_cf.GssOrb xmldump
    saved to directory /home4/s4752295/Internship/Initial_simulations/Point_charge_model/1_electron/active_space_9_non_rel/Mo/varying_bond_length
--- Module seward spent 11 seconds ---

*** symbolic link created: INPORB -> molybdenum_so_cf.GssOrb
--- Start Module: scf at Thu Jan  9 20:41:46 2025 ---

()()()()()()()()()()()()()()()()()()()()()()()()()()()()()()()()()()()()()()()()()()()()()()()()()()

                                                &SCF

                                   only a single process is used
                       available to each process: 4.1 GB of memory, 1 thread?
                                            pid: 1885847
()()()()()()()()()()()()()()()()()()()()()()()()()()()()()()()()()()()()()()()()()()()()()()()()()()

++    Input section:
      --------------

      Header of the integral files:
      
       Integrals generated by seward 4.2.0  , Thu Jan  9 20:41:36 2025


      Cartesian coordinates in Angstrom:
      -----------------------------------------------------
      No.  Label        X            Y            Z        
      -----------------------------------------------------
       1   MO         0.00000000   0.00000000   0.00000000
      -----------------------------------------------------
      Nuclear repulsion energy = -533.33333454
--

++    Orbital specifications:
      -----------------------

      Symmetry species               1
                                     a
      Frozen orbitals                0
      Occupied orbitals             18
      Secondary orbitals           164
      Deleted orbitals               0
      Total number of orbitals     182
      Number of basis functions    182
--

      Molecular charge                           6.000

++    Optimization specifications:
      ----------------------------

      SCF Algorithm: Conventional
      Minimized density differences are used
      Number of density matrices in core                5
      Maximum number of NDDO SCF iterations            50
      Maximum number of HF SCF iterations             100
      Threshold for SCF energy change            0.10E-08
      Threshold for density matrix               0.10E-03
      Threshold for Fock matrix                  0.15E-03
      Threshold for linear dependence            0.10E-08
      Threshold at which DIIS is turned on       0.15E+00
      Threshold at which QNR/C2DIIS is turned on 0.75E-01
      Threshold for Norm(delta) (QNR/C2DIIS)     0.20E-04
      DIIS extrapolation of the SCF procedure
      All orbitals punched on: SCFORB
--

      Detected guessorb starting orbitals                                             


++ Convergence information
                                   SCF        iterations: Energy and convergence statistics

Iter     Tot. SCF        One-elec.       Two-elec.     Energy      Max Dij or  Max Fij      DNorm      TNorm      AccCon     Time
         Energy          Energy          Energy        Change      Delta Norm                                                in Sec.

 The total and one-electron energies are shifted by a value of      4000. a.u.

   1  -235.999623463 -1108.690738213  1406.024449289   0.00E+00    0.43E+00*   0.17E+01*    0.85E+01   0.55E+03   None         1.
   2  -240.482147095  -940.879146144  1233.730333587  -0.45E+01*   0.13E+00*   0.85E+00*    0.36E+01   0.52E+03   EDIIS        1.
   3  -242.634902544 -1034.201554421  1324.899986416  -0.22E+01*   0.93E-01*   0.41E+00*    0.50E+00   0.54E+03   EDIIS        1.
   4  -242.895340057  -993.799859168  1284.237853650  -0.26E+00*   0.30E-01*   0.21E+00*    0.11E+00   0.53E+03   EDIIS        1.
   5  -243.010375478 -1014.202760885  1304.525719947  -0.12E+00*   0.18E-01*   0.87E-01*    0.21E-01   0.53E+03   EDIIS        1.
   6  -243.022368791 -1005.611371734  1295.922337482  -0.12E-01*   0.64E-02*   0.44E-01*    0.45E-02   0.53E+03   EDIIS        1.
   7  -243.027515289 -1009.916766849  1300.222586098  -0.51E-02*   0.21E-03*   0.12E-01*    0.91E-03   0.53E+03   c2DIIS       1.
   8  -243.028328578 -1008.760007399  1299.065013360  -0.81E-03*   0.10E-03*   0.62E-04     0.92E-04   0.53E+03   QNRc2DIIS    1.
   9  -243.028328627 -1008.754927717  1299.059933629  -0.49E-07*   0.60E-04*   0.29E-04     0.12E-04   0.53E+03   QNRc2DIIS    1.
  10  -243.028328634 -1008.757213633  1299.062219537  -0.76E-08*   0.64E-05    0.85E-05     0.30E-04   0.53E+03   QNRc2DIIS    1.
  11  -243.028328635 -1008.756717744  1299.061723648  -0.31E-09    0.71E-06    0.79E-06     0.38E-01   0.53E+03   QNRc2DIIS    1.

       Convergence after 11 Macro Iterations
--

 *****************************************************************************************************************************
 *                                                                                                                           *
 *                                             SCF/KS-DFT Program, Final results                                             *
 *                                                                                                                           *
 *                                                                                                                           *
 *                                                                                                                           *
 *                                                       Final Results                                                       *
 *                                                                                                                           *
 *****************************************************************************************************************************

::    Total SCF energy                              -4243.0283286347
      One-electron energy                           -5008.7567177437
      Two-electron energy                            1299.0617236477
      Nuclear repulsion energy                       -533.3333345387
      Kinetic energy (interpolated)                  4313.6491664468
      Virial theorem                                    0.9836285161
      Total spin, S(S+1)                                0.0000000000
      Total spin, S                                     0.0000000000
      Max non-diagonal density matrix element           0.0000004948
      Max non-diagonal Fock matrix element              0.0000000500


      All orbitals with orbital energies smaller than  E(LUMO)+0.5 are printed

++    Molecular orbitals:
      -------------------

      Title: SCF orbitals

      Molecular orbitals for symmetry species 1: a  

          Orbital            1         2         3         4         5         6         7         8         9        10    
          Energy         -735.7577 -103.3046  -91.9705  -91.9705  -91.7254  -16.3192  -12.6551  -12.6551  -12.0965   -6.3393
          Occ. No.          2.0000    2.0000    2.0000    2.0000    2.0000    2.0000    2.0000    2.0000    2.0000    2.0000

        1 MO     1s         1.0000    0.0001    0.0000   -0.0000   -0.0001   -0.0000   -0.0000   -0.0000    0.0000   -0.0000
        2 MO     2s        -0.0001    0.9996    0.0000   -0.0000   -0.0267    0.0026    0.0000    0.0000   -0.0015   -0.0000
        3 MO     3s         0.0000   -0.0030    0.0000   -0.0000    0.0008    0.9925    0.0000   -0.0000   -0.0925   -0.0000
        4 MO     4s        -0.0000    0.0012   -0.0000   -0.0000   -0.0003    0.0523    0.0000    0.0000   -0.0159   -0.0000
        5 MO     5s         0.0000   -0.0003    0.0000   -0.0000    0.0001   -0.0104   -0.0000    0.0000    0.0030    0.0000
        6 MO     6s        -0.0000    0.0004   -0.0000   -0.0000   -0.0001    0.0120    0.0000    0.0000   -0.0034   -0.0000
        7 MO     7s         0.0000   -0.0012    0.0000    0.0000    0.0003   -0.0307   -0.0000   -0.0000    0.0085    0.0000
        8 MO     8s        -0.0000    0.0012    0.0000    0.0000   -0.0003    0.0205    0.0000   -0.0000   -0.0054   -0.0000
        9 MO     9s         0.0000   -0.0013   -0.0000    0.0000    0.0003   -0.0159   -0.0000   -0.0000    0.0041    0.0000
       10 MO    10s        -0.0000    0.0021    0.0000   -0.0000   -0.0005    0.0060    0.0000    0.0000   -0.0015   -0.0000
       11 MO     2px       -0.0000   -0.0000    1.0000   -0.0064   -0.0000    0.0000    0.0020    0.0000   -0.0000   -0.0002
       12 MO     3px        0.0000   -0.0000   -0.0029    0.0000    0.0000   -0.0000    0.9896    0.0000   -0.0000   -0.0003
       13 MO     4px       -0.0000    0.0000    0.0011   -0.0000   -0.0000    0.0000    0.0576    0.0000   -0.0000    0.0018
       14 MO     5px        0.0000   -0.0000   -0.0004    0.0000    0.0000   -0.0000   -0.0166   -0.0000    0.0000   -0.0005
       15 MO     6px       -0.0000    0.0000    0.0010   -0.0000   -0.0000    0.0000    0.0350    0.0000   -0.0000    0.0009
       16 MO     7px        0.0000   -0.0000   -0.0010    0.0000    0.0000   -0.0000   -0.0243   -0.0000    0.0000   -0.0006
       17 MO     8px       -0.0000    0.0000    0.0013   -0.0000   -0.0000    0.0000    0.0198    0.0000   -0.0000    0.0005
       18 MO     9px        0.0000   -0.0000   -0.0014    0.0000    0.0000   -0.0000   -0.0117   -0.0000    0.0000   -0.0004
       19 MO    10px       -0.0000    0.0000    0.0017   -0.0000   -0.0000    0.0000    0.0010    0.0000   -0.0000    0.0000
       20 MO     2py        0.0000    0.0000    0.0064    1.0000   -0.0000    0.0000   -0.0000    0.0020   -0.0000   -0.0000
       21 MO     3py        0.0000   -0.0000   -0.0000   -0.0029    0.0000    0.0000   -0.0000    0.9896    0.0000   -0.0000
       22 MO     4py        0.0000    0.0000    0.0000    0.0011   -0.0000   -0.0000   -0.0000    0.0576   -0.0000    0.0000
       23 MO     5py        0.0000   -0.0000   -0.0000   -0.0004    0.0000    0.0000    0.0000   -0.0166    0.0000   -0.0000
       24 MO     6py       -0.0000    0.0000    0.0000    0.0010   -0.0000   -0.0000   -0.0000    0.0350    0.0000    0.0000
       25 MO     7py        0.0000   -0.0000   -0.0000   -0.0010    0.0000    0.0000    0.0000   -0.0243   -0.0000   -0.0000
       26 MO     8py       -0.0000    0.0000    0.0000    0.0013   -0.0000   -0.0000   -0.0000    0.0198    0.0000    0.0000
       27 MO     9py        0.0000   -0.0000   -0.0000   -0.0014    0.0000    0.0000    0.0000   -0.0117    0.0000   -0.0000
       28 MO    10py       -0.0000    0.0000    0.0000    0.0017   -0.0000   -0.0000   -0.0000    0.0010    0.0000    0.0000
       29 MO     2pz        0.0001    0.0267    0.0000   -0.0000    0.9996   -0.0004    0.0000   -0.0000    0.0041    0.0000
       30 MO     3pz       -0.0000    0.0011   -0.0000    0.0000   -0.0046    0.0920    0.0000    0.0000    0.9885    0.0000
       31 MO     4pz        0.0000   -0.0003    0.0000   -0.0000    0.0016   -0.0007    0.0000   -0.0000    0.0728    0.0000
       32 MO     5pz       -0.0000    0.0001   -0.0000    0.0000   -0.0006    0.0002   -0.0000   -0.0000   -0.0208   -0.0000
       33 MO     6pz        0.0000   -0.0003    0.0000   -0.0000    0.0015   -0.0005    0.0000   -0.0000    0.0440    0.0000
       34 MO     7pz       -0.0000    0.0003   -0.0000    0.0000   -0.0014    0.0004   -0.0000    0.0000   -0.0305   -0.0000
       35 MO     8pz        0.0000   -0.0004    0.0000   -0.0000    0.0019   -0.0003    0.0000    0.0000    0.0247    0.0000
       36 MO     9pz       -0.0000    0.0005   -0.0000    0.0000   -0.0020    0.0001   -0.0000   -0.0000   -0.0147   -0.0000
       37 MO    10pz        0.0000   -0.0006    0.0000   -0.0000    0.0024    0.0005   -0.0000   -0.0000    0.0008    0.0000
       38 MO     3d2-       0.0000    0.0000    0.0000    0.0025   -0.0000   -0.0000   -0.0000    0.0655    0.0000   -0.0000
       39 MO     4d2-       0.0000   -0.0000   -0.0000   -0.0005    0.0000   -0.0000    0.0000   -0.0031   -0.0000   -0.0000
       40 MO     5d2-      -0.0000    0.0000    0.0000    0.0006    0.0000    0.0000   -0.0000    0.0032   -0.0000    0.0000
       41 MO     6d2-       0.0000   -0.0000   -0.0000   -0.0005   -0.0000   -0.0000    0.0000   -0.0026    0.0000   -0.0000
       42 MO     7d2-      -0.0000    0.0000    0.0000    0.0006   -0.0000    0.0000   -0.0000    0.0021    0.0000    0.0000
       43 MO     8d2-       0.0000   -0.0000   -0.0000   -0.0007    0.0000   -0.0000    0.0000   -0.0016    0.0000   -0.0000
       44 MO     9d2-      -0.0000    0.0000    0.0000    0.0007    0.0000    0.0000   -0.0000    0.0008   -0.0000    0.0000
       45 MO    10d2-       0.0000   -0.0000   -0.0000   -0.0009    0.0000   -0.0000   -0.0000    0.0001    0.0000   -0.0000
       46 MO    11d2-      -0.0000    0.0000    0.0000    0.0002   -0.0000    0.0000    0.0000   -0.0027   -0.0000   -0.0000
       47 MO     3d1-       0.0000   -0.0000    0.0000    0.0042   -0.0000    0.0000   -0.0000    0.1009    0.0000    0.0000
       48 MO     4d1-       0.0000   -0.0000   -0.0000   -0.0008    0.0000   -0.0000    0.0000   -0.0040   -0.0000    0.0000
       49 MO     5d1-      -0.0000    0.0000    0.0000    0.0010   -0.0000    0.0000   -0.0000    0.0041    0.0000   -0.0000
       50 MO     6d1-       0.0000   -0.0000   -0.0000   -0.0009    0.0000   -0.0000    0.0000   -0.0033    0.0000    0.0000
       51 MO     7d1-      -0.0000    0.0000    0.0000    0.0010   -0.0000    0.0000   -0.0000    0.0024    0.0000   -0.0000
       52 MO     8d1-       0.0000    0.0000   -0.0000   -0.0013    0.0000   -0.0000    0.0000   -0.0017   -0.0000    0.0000
       53 MO     9d1-      -0.0000   -0.0000    0.0000    0.0013   -0.0000    0.0000   -0.0000    0.0005    0.0000   -0.0000
       54 MO    10d1-      -0.0000    0.0000   -0.0000   -0.0017    0.0000   -0.0000   -0.0000    0.0008   -0.0000    0.0000
       55 MO    11d1-       0.0000   -0.0000    0.0000    0.0009   -0.0000    0.0000    0.0000   -0.0039   -0.0000    0.0000
       56 MO     3d0       -0.0000   -0.0020   -0.0000    0.0000   -0.0019   -0.0343   -0.0000    0.0000   -0.0648   -0.0000
       57 MO     4d0        0.0000    0.0004    0.0000   -0.0000    0.0004    0.0022    0.0000    0.0000    0.0037   -0.0000
       58 MO     5d0       -0.0000   -0.0005   -0.0000    0.0000   -0.0004   -0.0023   -0.0000   -0.0000   -0.0040    0.0000
       59 MO     6d0        0.0000    0.0004    0.0000   -0.0000    0.0004    0.0019    0.0000    0.0000    0.0034   -0.0000
       60 MO     7d0       -0.0000   -0.0005   -0.0000    0.0000   -0.0004   -0.0014   -0.0000   -0.0000   -0.0028    0.0000
       61 MO     8d0        0.0000    0.0006    0.0000   -0.0000    0.0005    0.0010    0.0000   -0.0000    0.0025   -0.0000
       62 MO     9d0       -0.0000   -0.0006   -0.0000    0.0000   -0.0004   -0.0003    0.0000    0.0000   -0.0015    0.0000
       63 MO    10d0        0.0000    0.0008   -0.0000    0.0000    0.0004   -0.0005   -0.0000   -0.0000    0.0008   -0.0000
       64 MO    11d0       -0.0000   -0.0004    0.0000   -0.0000    0.0004    0.0023    0.0000    0.0000    0.0027   -0.0000
       65 MO     3d1+       0.0000    0.0000    0.0042   -0.0000   -0.0000    0.0000    0.1009    0.0000   -0.0000    0.5395
       66 MO     4d1+      -0.0000   -0.0000   -0.0008    0.0000    0.0000   -0.0000   -0.0040   -0.0000    0.0000    0.0409
       67 MO     5d1+       0.0000    0.0000    0.0010   -0.0000   -0.0000    0.0000    0.0041    0.0000   -0.0000   -0.0366
       68 MO     6d1+      -0.0000   -0.0000   -0.0009    0.0000    0.0000   -0.0000   -0.0033   -0.0000    0.0000    0.0250
       69 MO     7d1+       0.0000    0.0000    0.0010   -0.0000   -0.0000    0.0000    0.0024    0.0000   -0.0000   -0.0170
       70 MO     8d1+      -0.0000   -0.0000   -0.0013    0.0000    0.0000   -0.0000   -0.0017   -0.0000    0.0000    0.0138
       71 MO     9d1+       0.0000    0.0000    0.0013   -0.0000   -0.0000    0.0000    0.0005    0.0000   -0.0000   -0.0084
       72 MO    10d1+      -0.0000   -0.0000   -0.0017    0.0000    0.0000   -0.0000    0.0008    0.0000    0.0000    0.0064
       73 MO    11d1+       0.0000    0.0000    0.0009   -0.0000   -0.0000   -0.0000   -0.0039   -0.0000    0.0000    0.0010
       74 MO     3d2+      -0.0000    0.0000   -0.0025    0.0000    0.0000    0.0000   -0.0655   -0.0000   -0.0000    0.8330
       75 MO     4d2+       0.0000   -0.0000    0.0005   -0.0000   -0.0000   -0.0000    0.0031    0.0000   -0.0000    0.0644
       76 MO     5d2+      -0.0000    0.0000   -0.0006    0.0000    0.0000    0.0000   -0.0032   -0.0000    0.0000   -0.0577
       77 MO     6d2+       0.0000   -0.0000    0.0005   -0.0000   -0.0000   -0.0000    0.0026    0.0000   -0.0000    0.0394
       78 MO     7d2+      -0.0000    0.0000   -0.0006    0.0000    0.0000    0.0000   -0.0021   -0.0000    0.0000   -0.0270
       79 MO     8d2+      -0.0000   -0.0000    0.0007   -0.0000   -0.0000    0.0000    0.0016    0.0000   -0.0000    0.0220
       80 MO     9d2+       0.0000    0.0000   -0.0007    0.0000    0.0000   -0.0000   -0.0008   -0.0000    0.0000   -0.0135
       81 MO    10d2+      -0.0000   -0.0000    0.0009   -0.0000   -0.0000    0.0000   -0.0001   -0.0000   -0.0000    0.0104
       82 MO    11d2+       0.0000   -0.0000   -0.0002    0.0000    0.0000   -0.0000    0.0027    0.0000    0.0000    0.0021
       83 MO     4f3-      -0.0000    0.0000    0.0000    0.0000    0.0000   -0.0000   -0.0000    0.0000   -0.0000   -0.0000
       84 MO     5f3-      -0.0000    0.0000    0.0000    0.0000    0.0000    0.0000   -0.0000    0.0000    0.0000   -0.0000
       85 MO     6f3-       0.0000   -0.0000   -0.0000   -0.0000   -0.0000   -0.0000    0.0000   -0.0000    0.0000   -0.0000
       86 MO     7f3-       0.0000    0.0000    0.0000    0.0000    0.0000    0.0000   -0.0000    0.0000   -0.0000   -0.0000
       87 MO     8f3-       0.0000   -0.0000    0.0000    0.0000   -0.0000    0.0000   -0.0000    0.0000    0.0000   -0.0000
       88 MO     9f3-      -0.0000    0.0000   -0.0000   -0.0000   -0.0000   -0.0000    0.0000   -0.0000    0.0000   -0.0000
       89 MO     4f2-       0.0000   -0.0000   -0.0000   -0.0000    0.0000   -0.0000    0.0000   -0.0009   -0.0000   -0.0000
       90 MO     5f2-       0.0000   -0.0000   -0.0000   -0.0000   -0.0000   -0.0000    0.0000   -0.0010   -0.0000   -0.0000
       91 MO     6f2-      -0.0000    0.0000    0.0000    0.0000    0.0000    0.0000   -0.0000    0.0009    0.0000    0.0000
       92 MO     7f2-       0.0000   -0.0000   -0.0000   -0.0000    0.0000   -0.0000    0.0000   -0.0010   -0.0000   -0.0000
       93 MO     8f2-       0.0000   -0.0000   -0.0000   -0.0001    0.0000   -0.0000    0.0000   -0.0010   -0.0000   -0.0000
       94 MO     9f2-      -0.0000    0.0000    0.0000    0.0006   -0.0000    0.0000   -0.0000    0.0066    0.0000    0.0000
       95 MO     4f1-      -0.0000    0.0000   -0.0000   -0.0000    0.0000    0.0000    0.0000   -0.0010   -0.0000    0.0000
       96 MO     5f1-       0.0000    0.0000   -0.0000   -0.0000   -0.0000    0.0000    0.0000   -0.0011    0.0000    0.0000
       97 MO     6f1-      -0.0000   -0.0000    0.0000    0.0000   -0.0000   -0.0000   -0.0000    0.0010    0.0000   -0.0000
       98 MO     7f1-       0.0000    0.0000   -0.0000   -0.0000    0.0000    0.0000    0.0000   -0.0010   -0.0000    0.0000
       99 MO     8f1-      -0.0000   -0.0000   -0.0000   -0.0000   -0.0000    0.0000    0.0000   -0.0008   -0.0000    0.0000
      100 MO     9f1-       0.0000    0.0000    0.0000    0.0003    0.0000    0.0000   -0.0000    0.0048    0.0000   -0.0000
      101 MO     4f0        0.0000   -0.0001   -0.0000    0.0000   -0.0000   -0.0029   -0.0000    0.0000   -0.0013    0.0000
      102 MO     5f0        0.0000   -0.0000   -0.0000    0.0000   -0.0000   -0.0030   -0.0000    0.0000   -0.0014    0.0000
      103 MO     6f0       -0.0000    0.0000    0.0000   -0.0000    0.0000    0.0027    0.0000   -0.0000    0.0012   -0.0000
      104 MO     7f0        0.0000   -0.0001   -0.0000    0.0000   -0.0000   -0.0030   -0.0000   -0.0000   -0.0012    0.0000
      105 MO     8f0        0.0000   -0.0002   -0.0000    0.0000   -0.0001   -0.0030   -0.0000    0.0000   -0.0010    0.0000
      106 MO     9f0       -0.0000    0.0015    0.0000   -0.0000    0.0004    0.0183    0.0000    0.0000    0.0055   -0.0000
      107 MO     4f1+       0.0000   -0.0000   -0.0000    0.0000    0.0000   -0.0000   -0.0010   -0.0000    0.0000    0.0019
      108 MO     5f1+       0.0000   -0.0000   -0.0000    0.0000    0.0000   -0.0000   -0.0011   -0.0000    0.0000    0.0019
      109 MO     6f1+      -0.0000    0.0000    0.0000   -0.0000   -0.0000    0.0000    0.0010    0.0000   -0.0000   -0.0016
      110 MO     7f1+       0.0000   -0.0000   -0.0000    0.0000    0.0000   -0.0000   -0.0010   -0.0000    0.0000    0.0014
      111 MO     8f1+       0.0000   -0.0000   -0.0000    0.0000    0.0000   -0.0000   -0.0008   -0.0000    0.0000    0.0010
      112 MO     9f1+      -0.0000    0.0000    0.0003   -0.0000   -0.0000    0.0000    0.0048    0.0000   -0.0000   -0.0052
      113 MO     4f2+      -0.0000   -0.0000    0.0000   -0.0000   -0.0000   -0.0000    0.0009    0.0000    0.0000    0.0039
      114 MO     5f2+      -0.0000   -0.0000    0.0000   -0.0000   -0.0000   -0.0000    0.0010    0.0000    0.0000    0.0040
      115 MO     6f2+       0.0000    0.0000   -0.0000    0.0000   -0.0000    0.0000   -0.0009   -0.0000   -0.0000   -0.0033
      116 MO     7f2+       0.0000   -0.0000    0.0000   -0.0000   -0.0000   -0.0000    0.0010    0.0000    0.0000    0.0029
      117 MO     8f2+       0.0000   -0.0000    0.0001   -0.0000   -0.0000   -0.0000    0.0010    0.0000    0.0000    0.0022
      118 MO     9f2+      -0.0000    0.0000   -0.0006    0.0000    0.0000    0.0000   -0.0066   -0.0000   -0.0000   -0.0122
      119 MO     4f3+       0.0000   -0.0001    0.0000   -0.0000    0.0000   -0.0018    0.0000    0.0000    0.0013    0.0000
      120 MO     5f3+       0.0000   -0.0000    0.0000   -0.0000    0.0000   -0.0019    0.0000    0.0000    0.0014    0.0000
      121 MO     6f3+      -0.0000    0.0000   -0.0000    0.0000   -0.0000    0.0017   -0.0000   -0.0000   -0.0013   -0.0000
      122 MO     7f3+       0.0000   -0.0001    0.0000   -0.0000    0.0000   -0.0019    0.0000    0.0000    0.0014    0.0000
      123 MO     8f3+       0.0000   -0.0001    0.0000   -0.0000    0.0001   -0.0019    0.0000    0.0000    0.0013    0.0000
      124 MO     9f3+      -0.0000    0.0010   -0.0000    0.0000   -0.0006    0.0116   -0.0000   -0.0000   -0.0083   -0.0000
      125 MO     5g4-      -0.0000    0.0000   -0.0000   -0.0000    0.0000   -0.0000    0.0000   -0.0006   -0.0000    0.0000
      126 MO     6g4-       0.0000   -0.0000    0.0000    0.0000   -0.0000    0.0000   -0.0000    0.0009    0.0000   -0.0000
      127 MO     7g4-      -0.0000    0.0000   -0.0000   -0.0001    0.0000   -0.0000    0.0000   -0.0015   -0.0000    0.0000
      128 MO     8g4-       0.0000   -0.0000    0.0000    0.0001   -0.0000    0.0000   -0.0000    0.0020    0.0000   -0.0000
      129 MO     5g3-       0.0000    0.0000   -0.0000   -0.0000    0.0000    0.0000    0.0000   -0.0000    0.0000    0.0000
      130 MO     6g3-      -0.0000   -0.0000    0.0000    0.0000   -0.0000   -0.0000   -0.0000    0.0000   -0.0000    0.0000
      131 MO     7g3-       0.0000    0.0000   -0.0000   -0.0000    0.0000    0.0000    0.0000   -0.0000    0.0000    0.0000
      132 MO     8g3-      -0.0000   -0.0000    0.0000    0.0000    0.0000   -0.0000   -0.0000    0.0000   -0.0000   -0.0000
      133 MO     5g2-      -0.0000   -0.0000    0.0000    0.0000    0.0000   -0.0000   -0.0000    0.0000   -0.0000    0.0000
      134 MO     6g2-       0.0000    0.0000   -0.0000   -0.0000    0.0000    0.0000    0.0000   -0.0000    0.0000   -0.0000
      135 MO     7g2-      -0.0000   -0.0000    0.0000    0.0000   -0.0000   -0.0000   -0.0000    0.0000   -0.0000    0.0000
      136 MO     8g2-       0.0000    0.0000   -0.0000   -0.0000    0.0000    0.0000    0.0000   -0.0001    0.0000   -0.0000
      137 MO     5g1-       0.0000   -0.0000   -0.0000   -0.0000    0.0000   -0.0000    0.0000   -0.0008    0.0000   -0.0000
      138 MO     6g1-      -0.0000    0.0000    0.0000    0.0000   -0.0000    0.0000   -0.0000    0.0011   -0.0000    0.0000
      139 MO     7g1-       0.0000   -0.0000   -0.0000   -0.0001    0.0000   -0.0000    0.0000   -0.0019    0.0000   -0.0000
      140 MO     8g1-      -0.0000    0.0000    0.0000    0.0001   -0.0000    0.0000   -0.0000    0.0026    0.0000    0.0000
      141 MO     5g0        0.0000   -0.0000   -0.0000    0.0000   -0.0000   -0.0001   -0.0000   -0.0000   -0.0012    0.0000
      142 MO     6g0       -0.0000    0.0000    0.0000   -0.0000    0.0001    0.0002    0.0000   -0.0000    0.0018   -0.0000
      143 MO     7g0        0.0000   -0.0000   -0.0000    0.0000   -0.0001   -0.0003   -0.0000   -0.0000   -0.0030    0.0000
      144 MO     8g0       -0.0000    0.0000    0.0000   -0.0000    0.0002    0.0004    0.0000   -0.0000    0.0041   -0.0000
      145 MO     5g1+      -0.0000    0.0000   -0.0000    0.0000    0.0000    0.0000   -0.0008   -0.0000    0.0000   -0.0006
      146 MO     6g1+       0.0000   -0.0000    0.0000   -0.0000   -0.0000   -0.0000    0.0011    0.0000   -0.0000    0.0008
      147 MO     7g1+      -0.0000    0.0000   -0.0001    0.0000    0.0000    0.0000   -0.0019   -0.0000   -0.0000   -0.0012
      148 MO     8g1+       0.0000   -0.0000    0.0001   -0.0000   -0.0000   -0.0000    0.0026    0.0000    0.0000    0.0016
      149 MO     5g2+      -0.0000   -0.0000   -0.0000    0.0000    0.0000    0.0000   -0.0000   -0.0000   -0.0000   -0.0003
      150 MO     6g2+       0.0000    0.0000    0.0000   -0.0000   -0.0000   -0.0000    0.0000    0.0000    0.0000    0.0003
      151 MO     7g2+      -0.0000   -0.0000   -0.0000    0.0000    0.0000    0.0000   -0.0000   -0.0000   -0.0000   -0.0004
      152 MO     8g2+       0.0000    0.0000    0.0000   -0.0000   -0.0000   -0.0000    0.0001    0.0000    0.0000    0.0005
      153 MO     5g3+      -0.0000    0.0000   -0.0000    0.0000   -0.0000    0.0004   -0.0000   -0.0000   -0.0008    0.0000
      154 MO     6g3+       0.0000   -0.0000    0.0000   -0.0000    0.0000   -0.0007    0.0000    0.0000    0.0011   -0.0000
      155 MO     7g3+      -0.0000    0.0001   -0.0000    0.0000   -0.0001    0.0014   -0.0000   -0.0000   -0.0019    0.0000
      156 MO     8g3+       0.0000   -0.0001    0.0000   -0.0000    0.0001   -0.0019    0.0000    0.0000    0.0026   -0.0000
      157 MO     5g4+      -0.0000   -0.0000   -0.0000    0.0000    0.0000    0.0000   -0.0006   -0.0000    0.0000    0.0001
      158 MO     6g4+       0.0000    0.0000    0.0000   -0.0000   -0.0000    0.0000    0.0009    0.0000   -0.0000   -0.0002
      159 MO     7g4+      -0.0000   -0.0000   -0.0001    0.0000    0.0000   -0.0000   -0.0015   -0.0000    0.0000    0.0003
      160 MO     8g4+       0.0000    0.0000    0.0001   -0.0000   -0.0000    0.0000    0.0020    0.0000   -0.0000   -0.0004
      161 MO     6h5-      -0.0000   -0.0000    0.0000    0.0000   -0.0000   -0.0000   -0.0000    0.0000   -0.0000    0.0000
      162 MO     7h5-       0.0000    0.0000   -0.0000   -0.0000    0.0000    0.0000    0.0000   -0.0000   -0.0000   -0.0000
      163 MO     6h4-      -0.0000    0.0000    0.0000    0.0000   -0.0000    0.0000   -0.0000    0.0001    0.0000   -0.0000
      164 MO     7h4-       0.0000   -0.0000   -0.0000   -0.0000    0.0000   -0.0000    0.0000   -0.0002   -0.0000    0.0000
      165 MO     6h3-      -0.0000   -0.0000   -0.0000    0.0000   -0.0000   -0.0000    0.0000    0.0000    0.0000   -0.0000
      166 MO     7h3-       0.0000    0.0000   -0.0000   -0.0000    0.0000    0.0000   -0.0000   -0.0000    0.0000    0.0000
      167 MO     6h2-      -0.0000    0.0000    0.0000    0.0000   -0.0000    0.0000   -0.0000    0.0000    0.0000    0.0000
      168 MO     7h2-       0.0000   -0.0000   -0.0000   -0.0000    0.0000   -0.0000    0.0000   -0.0000   -0.0000   -0.0000
      169 MO     6h1-      -0.0000   -0.0000    0.0000    0.0000   -0.0000   -0.0000   -0.0000    0.0000   -0.0000   -0.0000
      170 MO     7h1-       0.0000    0.0000   -0.0000   -0.0000    0.0000    0.0000    0.0000   -0.0000   -0.0000    0.0000
      171 MO     6h0        0.0000   -0.0000   -0.0000    0.0000   -0.0000   -0.0000   -0.0000   -0.0000   -0.0001    0.0000
      172 MO     7h0       -0.0000    0.0000    0.0000   -0.0000    0.0000    0.0000    0.0000    0.0000    0.0001   -0.0000
      173 MO     6h1+       0.0000    0.0000    0.0000   -0.0000   -0.0000   -0.0000    0.0000    0.0000    0.0000   -0.0002
      174 MO     7h1+      -0.0000   -0.0000   -0.0000    0.0000    0.0000    0.0000   -0.0000   -0.0000   -0.0000    0.0003
      175 MO     6h2+      -0.0000    0.0000   -0.0000    0.0000    0.0000    0.0000   -0.0000   -0.0000   -0.0000   -0.0002
      176 MO     7h2+       0.0000   -0.0000    0.0000   -0.0000   -0.0000   -0.0000    0.0000    0.0000    0.0000    0.0002
      177 MO     6h3+       0.0000   -0.0000    0.0000   -0.0000    0.0000   -0.0001    0.0000    0.0000    0.0002   -0.0000
      178 MO     7h3+      -0.0000    0.0000   -0.0000    0.0000   -0.0000    0.0001   -0.0000   -0.0000   -0.0002    0.0000
      179 MO     6h4+       0.0000    0.0000    0.0000   -0.0000   -0.0000    0.0000    0.0001    0.0000   -0.0000   -0.0001
      180 MO     7h4+      -0.0000   -0.0000   -0.0000    0.0000    0.0000   -0.0000   -0.0002   -0.0000    0.0000    0.0002
      181 MO     6h5+      -0.0000    0.0000   -0.0000    0.0000   -0.0000    0.0000   -0.0000   -0.0000   -0.0000   -0.0003
      182 MO     7h5+       0.0000   -0.0000    0.0000   -0.0000    0.0000   -0.0000    0.0000    0.0000    0.0000    0.0003

          Orbital           11        12        13        14        15        16        17        18        19        20    
          Energy           -6.3393   -5.6182   -5.5121   -5.5121   -2.6190   -1.6592   -1.6592   -1.6037   -0.3995   -0.2954
          Occ. No.          2.0000    2.0000    2.0000    2.0000    2.0000    2.0000    2.0000    2.0000    0.0000    0.0000

        1 MO     1s        -0.0000    0.0000    0.0000   -0.0000    0.0000    0.0000   -0.0000   -0.0000   -0.0000   -0.0000
        2 MO     2s        -0.0000    0.0017    0.0000   -0.0000   -0.0011   -0.0000    0.0000    0.0003    0.0003    0.0000
        3 MO     3s        -0.0000    0.0256    0.0000   -0.0000   -0.0450   -0.0000    0.0000    0.0065    0.0114    0.0000
        4 MO     4s        -0.0000    0.0290    0.0000   -0.0000    0.9755   -0.0000    0.0000   -0.0466   -0.0872   -0.0000
        5 MO     5s         0.0000   -0.0033   -0.0000    0.0000    0.1062    0.0000   -0.0000   -0.0226    0.9843    0.0000
        6 MO     6s        -0.0000    0.0036    0.0000   -0.0000   -0.0967   -0.0000   -0.0000    0.0177   -0.0049    0.0000
        7 MO     7s         0.0000   -0.0081   -0.0000    0.0000    0.1451    0.0000    0.0000   -0.0203   -0.1370   -0.0000
        8 MO     8s        -0.0000    0.0043    0.0000   -0.0000   -0.0201   -0.0000    0.0000   -0.0004   -0.0385   -0.0000
        9 MO     9s         0.0000   -0.0031   -0.0000    0.0000    0.0069    0.0000    0.0000   -0.0011   -0.0126   -0.0000
       10 MO    10s        -0.0000    0.0014    0.0000   -0.0000   -0.0036   -0.0000    0.0000    0.0006    0.0007   -0.0000
       11 MO     2px       -0.0000   -0.0000    0.0000   -0.0044   -0.0000   -0.0010    0.0000    0.0000    0.0000   -0.0001
       12 MO     3px       -0.0000   -0.0000    0.0000   -0.1106   -0.0000   -0.0507    0.0000    0.0000    0.0000    0.0055
       13 MO     4px        0.0000   -0.0000    0.0000   -0.0679   -0.0000    0.9665   -0.0001   -0.0000   -0.0000   -0.0562
       14 MO     5px       -0.0000    0.0000   -0.0000    0.0152    0.0000    0.1519   -0.0000   -0.0000   -0.0000    0.8003
       15 MO     6px        0.0000   -0.0000    0.0000   -0.0287   -0.0000   -0.1784    0.0000    0.0000    0.0000    0.2817
       16 MO     7px       -0.0000    0.0000   -0.0000    0.0171    0.0000    0.0332   -0.0000   -0.0000    0.0000    0.1062
       17 MO     8px        0.0000   -0.0000    0.0000   -0.0121   -0.0000   -0.0025    0.0000    0.0000    0.0000    0.0103
       18 MO     9px       -0.0000    0.0000   -0.0000    0.0077    0.0000    0.0133   -0.0000   -0.0000   -0.0000   -0.0074
       19 MO    10px        0.0000   -0.0000    0.0000   -0.0011   -0.0000    0.0010   -0.0000    0.0000    0.0000   -0.0016
       20 MO     2py        0.0002    0.0000   -0.0044   -0.0000    0.0000   -0.0000   -0.0010    0.0000    0.0000    0.0000
       21 MO     3py        0.0003    0.0000   -0.1106   -0.0000   -0.0000   -0.0000   -0.0507    0.0000   -0.0000   -0.0000
       22 MO     4py       -0.0018    0.0000   -0.0679   -0.0000   -0.0000    0.0001    0.9665   -0.0000    0.0000    0.0001
       23 MO     5py        0.0005   -0.0000    0.0152    0.0000    0.0000    0.0000    0.1519   -0.0000   -0.0000   -0.0011
       24 MO     6py       -0.0009    0.0000   -0.0287   -0.0000   -0.0000   -0.0000   -0.1784    0.0000   -0.0000   -0.0004
       25 MO     7py        0.0006   -0.0000    0.0171    0.0000    0.0000    0.0000    0.0332    0.0000   -0.0000   -0.0001
       26 MO     8py       -0.0005    0.0000   -0.0121   -0.0000   -0.0000   -0.0000   -0.0025    0.0000   -0.0000   -0.0000
       27 MO     9py        0.0004    0.0000    0.0077    0.0000    0.0000    0.0000    0.0133   -0.0000    0.0000    0.0000
       28 MO    10py       -0.0000   -0.0000   -0.0011   -0.0000   -0.0000    0.0000    0.0010   -0.0000   -0.0000    0.0000
       29 MO     2pz        0.0000    0.0019    0.0000   -0.0000    0.0001   -0.0000    0.0000   -0.0014   -0.0001    0.0000
       30 MO     3pz        0.0000    0.0610    0.0000   -0.0000    0.0038   -0.0000    0.0000   -0.0583   -0.0020   -0.0000
       31 MO     4pz        0.0000    0.0433    0.0000   -0.0000    0.0548    0.0000   -0.0000    0.9600    0.0091    0.0000
       32 MO     5pz       -0.0000   -0.0099   -0.0000    0.0000   -0.0024    0.0000    0.0000    0.1718    0.0407   -0.0000
       33 MO     6pz       -0.0000    0.0187    0.0000   -0.0000    0.0028   -0.0000   -0.0000   -0.1965   -0.0034   -0.0000
       34 MO     7pz       -0.0000   -0.0113   -0.0000    0.0000   -0.0007    0.0000    0.0000    0.0341   -0.0016   -0.0000
       35 MO     8pz       -0.0000    0.0081    0.0000   -0.0000    0.0004   -0.0000   -0.0000   -0.0026   -0.0016   -0.0000
       36 MO     9pz       -0.0000   -0.0054   -0.0000    0.0000   -0.0005    0.0000   -0.0000    0.0154   -0.0001    0.0000
       37 MO    10pz        0.0000    0.0006   -0.0000    0.0000   -0.0002    0.0000   -0.0000    0.0012   -0.0000    0.0000
       38 MO     3d2-       0.8330   -0.0000    0.5288    0.0001   -0.0000    0.0000    0.0236   -0.0000    0.0000   -0.0000
       39 MO     4d2-       0.0644   -0.0000    0.0631    0.0000   -0.0000    0.0000    0.0350   -0.0000    0.0000    0.0004
       40 MO     5d2-      -0.0577    0.0000   -0.0551   -0.0000   -0.0000   -0.0000   -0.0161    0.0000    0.0000    0.0002
       41 MO     6d2-       0.0394   -0.0000    0.0367    0.0000    0.0000    0.0000    0.0049   -0.0000    0.0000    0.0001
       42 MO     7d2-      -0.0270    0.0000   -0.0247   -0.0000    0.0000   -0.0000   -0.0027   -0.0000    0.0000    0.0000
       43 MO     8d2-       0.0220   -0.0000    0.0198    0.0000   -0.0000    0.0000    0.0025    0.0000    0.0000   -0.0000
       44 MO     9d2-      -0.0135    0.0000   -0.0120   -0.0000    0.0000   -0.0000   -0.0015    0.0000    0.0000   -0.0000
       45 MO    10d2-       0.0104   -0.0000    0.0092    0.0000    0.0000    0.0000    0.0010    0.0000    0.0000   -0.0000
       46 MO    11d2-       0.0021   -0.0000    0.0042    0.0000   -0.0000    0.0000    0.0011    0.0000    0.0000   -0.0000
       47 MO     3d1-      -0.5395   -0.0000    0.8182    0.0001   -0.0000    0.0000    0.0337   -0.0000   -0.0000   -0.0000
       48 MO     4d1-      -0.0409   -0.0000    0.0955    0.0000   -0.0000    0.0000    0.0555   -0.0000    0.0000    0.0005
       49 MO     5d1-       0.0366    0.0000   -0.0834   -0.0000    0.0000   -0.0000   -0.0262    0.0000    0.0000    0.0003
       50 MO     6d1-      -0.0250   -0.0000    0.0553    0.0000   -0.0000    0.0000    0.0080   -0.0000    0.0000    0.0001
       51 MO     7d1-       0.0170    0.0000   -0.0370   -0.0000    0.0000   -0.0000   -0.0040    0.0000    0.0000    0.0000
       52 MO     8d1-      -0.0138   -0.0000    0.0296    0.0000   -0.0000    0.0000    0.0035   -0.0000   -0.0000   -0.0000
       53 MO     9d1-       0.0084    0.0000   -0.0178   -0.0000    0.0000   -0.0000   -0.0020    0.0000   -0.0000   -0.0000
       54 MO    10d1-      -0.0064   -0.0000    0.0135    0.0000   -0.0000    0.0000    0.0012   -0.0000   -0.0000   -0.0000
       55 MO    11d1-      -0.0010   -0.0000    0.0058    0.0000    0.0000    0.0000    0.0017   -0.0000   -0.0000   -0.0000
       56 MO     3d0        0.0000    0.9814    0.0000   -0.0000   -0.0244   -0.0000    0.0000   -0.0264    0.0014    0.0000
       57 MO     4d0       -0.0000    0.1089    0.0000   -0.0000   -0.0186   -0.0000   -0.0000   -0.0322    0.0353   -0.0000
       58 MO     5d0       -0.0000   -0.0955   -0.0000    0.0000    0.0124    0.0000   -0.0000    0.0135    0.0057   -0.0000
       59 MO     6d0        0.0000    0.0637    0.0000   -0.0000   -0.0058   -0.0000   -0.0000   -0.0039    0.0009   -0.0000
       60 MO     7d0       -0.0000   -0.0428   -0.0000    0.0000    0.0030    0.0000    0.0000    0.0026   -0.0004   -0.0000
       61 MO     8d0        0.0000    0.0343    0.0000   -0.0000   -0.0022   -0.0000    0.0000   -0.0027   -0.0002    0.0000
       62 MO     9d0        0.0000   -0.0207   -0.0000    0.0000    0.0013    0.0000   -0.0000    0.0016   -0.0000    0.0000
       63 MO    10d0        0.0000    0.0158    0.0000   -0.0000   -0.0008   -0.0000   -0.0000   -0.0013   -0.0000    0.0000
       64 MO    11d0        0.0000    0.0062    0.0000   -0.0000   -0.0010   -0.0000   -0.0000   -0.0011    0.0002    0.0000
       65 MO     3d1+       0.0000    0.0000   -0.0001    0.8182    0.0000    0.0337   -0.0000   -0.0000   -0.0000    0.0158
       66 MO     4d1+       0.0000    0.0000   -0.0000    0.0955    0.0000    0.0555   -0.0000   -0.0000   -0.0000   -0.3422
       67 MO     5d1+      -0.0000   -0.0000    0.0000   -0.0834   -0.0000   -0.0262    0.0000    0.0000   -0.0000   -0.2051
       68 MO     6d1+       0.0000    0.0000   -0.0000    0.0553    0.0000    0.0080   -0.0000   -0.0000   -0.0000   -0.0782
       69 MO     7d1+      -0.0000   -0.0000    0.0000   -0.0370   -0.0000   -0.0040    0.0000    0.0000    0.0000   -0.0273
       70 MO     8d1+       0.0000    0.0000   -0.0000    0.0296    0.0000    0.0035   -0.0000   -0.0000    0.0000    0.0110
       71 MO     9d1+      -0.0000   -0.0000    0.0000   -0.0178   -0.0000   -0.0020    0.0000    0.0000    0.0000    0.0087
       72 MO    10d1+       0.0000    0.0000   -0.0000    0.0135    0.0000    0.0012   -0.0000   -0.0000   -0.0000    0.0032
       73 MO    11d1+       0.0000    0.0000   -0.0000    0.0058    0.0000    0.0017   -0.0000   -0.0000   -0.0000    0.0004
       74 MO     3d2+       0.0000   -0.0000    0.0001   -0.5288    0.0000   -0.0236    0.0000    0.0000   -0.0000   -0.0118
       75 MO     4d2+       0.0000   -0.0000    0.0000   -0.0631    0.0000   -0.0350    0.0000    0.0000   -0.0000    0.2629
       76 MO     5d2+      -0.0000    0.0000   -0.0000    0.0551   -0.0000    0.0161   -0.0000   -0.0000   -0.0000    0.1593
       77 MO     6d2+       0.0000   -0.0000    0.0000   -0.0367    0.0000   -0.0049    0.0000    0.0000   -0.0000    0.0613
       78 MO     7d2+      -0.0000    0.0000   -0.0000    0.0247   -0.0000    0.0027   -0.0000   -0.0000    0.0000    0.0215
       79 MO     8d2+       0.0000   -0.0000    0.0000   -0.0198    0.0000   -0.0025    0.0000    0.0000    0.0000   -0.0086
       80 MO     9d2+      -0.0000    0.0000   -0.0000    0.0120   -0.0000    0.0015   -0.0000   -0.0000    0.0000   -0.0068
       81 MO    10d2+       0.0000   -0.0000    0.0000   -0.0092   -0.0000   -0.0010    0.0000    0.0000    0.0000   -0.0025
       82 MO    11d2+       0.0000   -0.0000    0.0000   -0.0042    0.0000   -0.0011    0.0000   -0.0000   -0.0000   -0.0003
       83 MO     4f3-       0.0000   -0.0000   -0.0000   -0.0000   -0.0000    0.0000    0.0000    0.0000    0.0000    0.0000
       84 MO     5f3-       0.0000   -0.0000   -0.0000   -0.0000   -0.0000    0.0000    0.0000   -0.0000   -0.0000    0.0000
       85 MO     6f3-      -0.0000    0.0000    0.0000    0.0000   -0.0000    0.0000    0.0000   -0.0000   -0.0000    0.0000
       86 MO     7f3-       0.0000   -0.0000   -0.0000   -0.0000    0.0000   -0.0000   -0.0000   -0.0000   -0.0000    0.0000
       87 MO     8f3-      -0.0000   -0.0000   -0.0000   -0.0000    0.0000   -0.0000   -0.0000    0.0000    0.0000   -0.0000
       88 MO     9f3-       0.0000    0.0000    0.0000    0.0000   -0.0000    0.0000    0.0000   -0.0000    0.0000   -0.0000
       89 MO     4f2-       0.0039   -0.0000    0.0078    0.0000   -0.0000    0.0000    0.0025   -0.0000   -0.0000    0.0000
       90 MO     5f2-       0.0040   -0.0000    0.0078    0.0000    0.0000    0.0000    0.0018   -0.0000   -0.0000   -0.0000
       91 MO     6f2-      -0.0033    0.0000   -0.0063   -0.0000    0.0000   -0.0000   -0.0012    0.0000    0.0000    0.0000
       92 MO     7f2-       0.0029   -0.0000    0.0054    0.0000    0.0000    0.0000    0.0009   -0.0000   -0.0000   -0.0000
       93 MO     8f2-       0.0022   -0.0000    0.0043    0.0000    0.0000    0.0000    0.0006   -0.0000   -0.0000   -0.0000
       94 MO     9f2-      -0.0122    0.0000   -0.0251   -0.0000   -0.0000   -0.0000   -0.0044    0.0000   -0.0000    0.0000
       95 MO     4f1-      -0.0019   -0.0000    0.0024    0.0000   -0.0000   -0.0000   -0.0015    0.0000    0.0000    0.0000
       96 MO     5f1-      -0.0019   -0.0000    0.0024    0.0000    0.0000   -0.0000   -0.0003    0.0000   -0.0000   -0.0000
       97 MO     6f1-       0.0016    0.0000   -0.0019   -0.0000   -0.0000   -0.0000   -0.0002   -0.0000   -0.0000   -0.0000
       98 MO     7f1-      -0.0014   -0.0000    0.0016    0.0000    0.0000    0.0000    0.0002   -0.0000   -0.0000   -0.0000
       99 MO     8f1-      -0.0010   -0.0000    0.0010    0.0000    0.0000    0.0000    0.0002   -0.0000    0.0000    0.0000
      100 MO     9f1-       0.0052    0.0000   -0.0053   -0.0000   -0.0000   -0.0000   -0.0018    0.0000    0.0000   -0.0000
      101 MO     4f0        0.0000   -0.0019   -0.0000    0.0000   -0.0021   -0.0000    0.0000   -0.0021    0.0007    0.0000
      102 MO     5f0        0.0000   -0.0019   -0.0000    0.0000    0.0002   -0.0000   -0.0000   -0.0005   -0.0015   -0.0000
      103 MO     6f0       -0.0000    0.0015    0.0000   -0.0000   -0.0007   -0.0000    0.0000   -0.0002   -0.0006    0.0000
      104 MO     7f0        0.0000   -0.0014   -0.0000    0.0000    0.0006    0.0000    0.0000    0.0002   -0.0004   -0.0000
      105 MO     8f0        0.0000   -0.0014   -0.0000    0.0000    0.0008    0.0000   -0.0000    0.0002   -0.0001   -0.0000
      106 MO     9f0       -0.0000    0.0096    0.0000   -0.0000   -0.0074   -0.0000    0.0000   -0.0023    0.0022    0.0000
      107 MO     4f1+       0.0000    0.0000   -0.0000    0.0024   -0.0000   -0.0015    0.0000    0.0000   -0.0000   -0.0007
      108 MO     5f1+       0.0000    0.0000   -0.0000    0.0024    0.0000   -0.0003    0.0000   -0.0000   -0.0000    0.0012
      109 MO     6f1+      -0.0000   -0.0000    0.0000   -0.0019   -0.0000   -0.0002    0.0000    0.0000   -0.0000    0.0009
      110 MO     7f1+       0.0000    0.0000   -0.0000    0.0016    0.0000    0.0002   -0.0000   -0.0000   -0.0000    0.0007
      111 MO     8f1+       0.0000    0.0000   -0.0000    0.0010    0.0000    0.0002   -0.0000   -0.0000   -0.0000   -0.0003
      112 MO     9f1+      -0.0000   -0.0000    0.0000   -0.0053   -0.0000   -0.0018    0.0000    0.0000    0.0000    0.0001
      113 MO     4f2+       0.0000   -0.0000    0.0000   -0.0078   -0.0000   -0.0025    0.0000    0.0000    0.0000    0.0009
      114 MO     5f2+       0.0000   -0.0000    0.0000   -0.0078   -0.0000   -0.0018    0.0000    0.0000   -0.0000   -0.0001
      115 MO     6f2+      -0.0000    0.0000   -0.0000    0.0063   -0.0000    0.0012   -0.0000   -0.0000   -0.0000    0.0002
      116 MO     7f2+       0.0000   -0.0000    0.0000   -0.0054    0.0000   -0.0009    0.0000    0.0000   -0.0000   -0.0002
      117 MO     8f2+       0.0000   -0.0000    0.0000   -0.0043    0.0000   -0.0006    0.0000   -0.0000   -0.0000   -0.0001
      118 MO     9f2+      -0.0000    0.0000   -0.0000    0.0251   -0.0000    0.0044   -0.0000    0.0000    0.0000    0.0009
      119 MO     4f3+       0.0000    0.0028    0.0000   -0.0000   -0.0014    0.0000   -0.0000   -0.0015    0.0004   -0.0000
      120 MO     5f3+       0.0000    0.0029    0.0000   -0.0000    0.0001    0.0000   -0.0000   -0.0012   -0.0011   -0.0000
      121 MO     6f3+      -0.0000   -0.0023   -0.0000    0.0000   -0.0004    0.0000    0.0000    0.0008   -0.0003   -0.0000
      122 MO     7f3+       0.0000    0.0021    0.0000   -0.0000    0.0003   -0.0000    0.0000   -0.0006   -0.0003   -0.0000
      123 MO     8f3+       0.0000    0.0016    0.0000   -0.0000    0.0005   -0.0000    0.0000   -0.0005   -0.0001    0.0000
      124 MO     9f3+      -0.0000   -0.0095   -0.0000    0.0000   -0.0045    0.0000   -0.0000    0.0035    0.0015   -0.0000
      125 MO     5g4-      -0.0001   -0.0000    0.0006    0.0000    0.0000   -0.0000   -0.0004    0.0000    0.0000   -0.0000
      126 MO     6g4-       0.0002    0.0000   -0.0008   -0.0000   -0.0000    0.0000    0.0002   -0.0000   -0.0000   -0.0000
      127 MO     7g4-      -0.0003   -0.0000    0.0013    0.0000    0.0000    0.0000    0.0001   -0.0000    0.0000   -0.0000
      128 MO     8g4-       0.0004    0.0000   -0.0019   -0.0000   -0.0000   -0.0000   -0.0005    0.0000   -0.0000   -0.0000
      129 MO     5g3-      -0.0000   -0.0000    0.0000    0.0000   -0.0000   -0.0000   -0.0000    0.0000    0.0000    0.0000
      130 MO     6g3-       0.0000    0.0000   -0.0000   -0.0000    0.0000   -0.0000    0.0000    0.0000   -0.0000    0.0000
      131 MO     7g3-      -0.0000   -0.0000    0.0000    0.0000   -0.0000    0.0000    0.0000   -0.0000   -0.0000   -0.0000
      132 MO     8g3-       0.0000   -0.0000   -0.0000   -0.0000    0.0000   -0.0000   -0.0000    0.0000    0.0000    0.0000
      133 MO     5g2-      -0.0003    0.0000   -0.0007   -0.0000    0.0000   -0.0000   -0.0002   -0.0000    0.0000   -0.0000
      134 MO     6g2-       0.0003   -0.0000    0.0009    0.0000    0.0000    0.0000    0.0001    0.0000   -0.0000   -0.0000
      135 MO     7g2-      -0.0004    0.0000   -0.0013   -0.0000   -0.0000   -0.0000   -0.0001   -0.0000    0.0000   -0.0000
      136 MO     8g2-       0.0005   -0.0000    0.0019    0.0000    0.0000    0.0000    0.0002    0.0000   -0.0000   -0.0000
      137 MO     5g1-       0.0006    0.0000   -0.0002   -0.0000    0.0000   -0.0000   -0.0006    0.0000   -0.0000   -0.0000
      138 MO     6g1-      -0.0008   -0.0000    0.0001    0.0000   -0.0000    0.0000    0.0003   -0.0000   -0.0000   -0.0000
      139 MO     7g1-       0.0012    0.0000   -0.0000   -0.0000    0.0000   -0.0000   -0.0000   -0.0000    0.0000   -0.0000
      140 MO     8g1-      -0.0016   -0.0000   -0.0001   -0.0000   -0.0000   -0.0000   -0.0004    0.0000   -0.0000   -0.0000
      141 MO     5g0       -0.0000   -0.0015   -0.0000    0.0000   -0.0000   -0.0000   -0.0000   -0.0005   -0.0000    0.0000
      142 MO     6g0        0.0000    0.0018    0.0000   -0.0000   -0.0000    0.0000    0.0000    0.0002    0.0000    0.0000
      143 MO     7g0       -0.0000   -0.0027   -0.0000    0.0000    0.0001    0.0000    0.0000    0.0003    0.0000   -0.0000
      144 MO     8g0        0.0000    0.0038    0.0000   -0.0000   -0.0001   -0.0000   -0.0000   -0.0010   -0.0000    0.0000
      145 MO     5g1+      -0.0000   -0.0000    0.0000   -0.0002    0.0000   -0.0006    0.0000    0.0000    0.0000    0.0007
      146 MO     6g1+       0.0000    0.0000   -0.0000    0.0001   -0.0000    0.0003   -0.0000   -0.0000    0.0000    0.0005
      147 MO     7g1+      -0.0000   -0.0000    0.0000   -0.0000   -0.0000   -0.0000    0.0000    0.0000    0.0000    0.0005
      148 MO     8g1+       0.0000   -0.0000    0.0000   -0.0001    0.0000   -0.0004    0.0000    0.0000   -0.0000    0.0002
      149 MO     5g2+      -0.0000    0.0000   -0.0000    0.0007   -0.0000    0.0002   -0.0000   -0.0000    0.0000   -0.0003
      150 MO     6g2+       0.0000   -0.0000    0.0000   -0.0009    0.0000   -0.0001    0.0000    0.0000    0.0000   -0.0002
      151 MO     7g2+      -0.0000    0.0000   -0.0000    0.0013   -0.0000    0.0001   -0.0000   -0.0000    0.0000   -0.0001
      152 MO     8g2+       0.0000   -0.0000    0.0000   -0.0019    0.0000   -0.0002    0.0000    0.0000   -0.0000   -0.0001
      153 MO     5g3+       0.0000   -0.0003   -0.0000    0.0000    0.0001   -0.0000    0.0000   -0.0002    0.0000   -0.0000
      154 MO     6g3+       0.0000    0.0003    0.0000   -0.0000    0.0000    0.0000   -0.0000    0.0001    0.0001   -0.0000
      155 MO     7g3+       0.0000   -0.0005   -0.0000    0.0000   -0.0003    0.0000   -0.0000    0.0002    0.0001    0.0000
      156 MO     8g3+       0.0000    0.0008    0.0000   -0.0000    0.0005   -0.0000    0.0000   -0.0006   -0.0002   -0.0000
      157 MO     5g4+       0.0000    0.0000   -0.0000    0.0006    0.0000   -0.0004    0.0000    0.0000   -0.0000    0.0003
      158 MO     6g4+      -0.0000   -0.0000    0.0000   -0.0008   -0.0000    0.0002   -0.0000   -0.0000    0.0000    0.0002
      159 MO     7g4+       0.0000    0.0000   -0.0000    0.0013    0.0000    0.0001   -0.0000   -0.0000   -0.0000    0.0003
      160 MO     8g4+      -0.0000   -0.0000    0.0000   -0.0019   -0.0000   -0.0005    0.0000    0.0000    0.0000    0.0000
      161 MO     6h5-      -0.0003    0.0000   -0.0002   -0.0000    0.0000   -0.0000   -0.0000    0.0000    0.0000    0.0000
      162 MO     7h5-       0.0003   -0.0000    0.0003    0.0000   -0.0000    0.0000    0.0000   -0.0000   -0.0000    0.0000
      163 MO     6h4-       0.0001    0.0000   -0.0003   -0.0000   -0.0000    0.0000    0.0002   -0.0000    0.0000    0.0000
      164 MO     7h4-      -0.0002   -0.0000    0.0004    0.0000    0.0000   -0.0000   -0.0000    0.0000    0.0000    0.0000
      165 MO     6h3-       0.0000   -0.0000   -0.0000    0.0000    0.0000    0.0000   -0.0000    0.0000    0.0000   -0.0000
      166 MO     7h3-      -0.0000   -0.0000    0.0000   -0.0000   -0.0000   -0.0000    0.0000   -0.0000   -0.0000    0.0000
      167 MO     6h2-      -0.0002    0.0000   -0.0002   -0.0000   -0.0000    0.0000    0.0000   -0.0000    0.0000    0.0000
      168 MO     7h2-       0.0002   -0.0000    0.0003    0.0000    0.0000    0.0000    0.0000   -0.0000    0.0000    0.0000
      169 MO     6h1-       0.0002    0.0000   -0.0005   -0.0000    0.0000   -0.0000   -0.0000    0.0000    0.0000    0.0000
      170 MO     7h1-      -0.0003   -0.0000    0.0006    0.0000   -0.0000    0.0000    0.0001   -0.0000    0.0000    0.0000
      171 MO     6h0        0.0000   -0.0007   -0.0000    0.0000    0.0000   -0.0000    0.0000    0.0000    0.0000   -0.0000
      172 MO     7h0       -0.0000    0.0008    0.0000   -0.0000   -0.0000   -0.0000   -0.0000   -0.0001    0.0000   -0.0000
      173 MO     6h1+      -0.0000   -0.0000    0.0000   -0.0005   -0.0000   -0.0000    0.0000    0.0000    0.0000   -0.0001
      174 MO     7h1+       0.0000    0.0000   -0.0000    0.0006    0.0000    0.0001   -0.0000   -0.0000   -0.0000   -0.0001
      175 MO     6h2+      -0.0000    0.0000   -0.0000    0.0002    0.0000   -0.0000    0.0000    0.0000   -0.0000    0.0001
      176 MO     7h2+       0.0000   -0.0000    0.0000   -0.0003   -0.0000   -0.0000    0.0000   -0.0000   -0.0000    0.0001
      177 MO     6h3+      -0.0000   -0.0002   -0.0000    0.0000   -0.0000    0.0000   -0.0000    0.0002    0.0000    0.0000
      178 MO     7h3+      -0.0000    0.0002    0.0000   -0.0000   -0.0000   -0.0000   -0.0000   -0.0001    0.0000   -0.0000
      179 MO     6h4+      -0.0000   -0.0000    0.0000   -0.0003   -0.0000    0.0002   -0.0000   -0.0000    0.0000   -0.0001
      180 MO     7h4+       0.0000    0.0000   -0.0000    0.0004    0.0000   -0.0000    0.0000   -0.0000   -0.0000   -0.0000
      181 MO     6h5+      -0.0000    0.0000   -0.0000    0.0002    0.0000    0.0000   -0.0000   -0.0000   -0.0000    0.0001
      182 MO     7h5+       0.0000   -0.0000    0.0000   -0.0003   -0.0000   -0.0000    0.0000   -0.0000   -0.0000    0.0001

          Orbital           21        22        23        24        25        26        27        28        29        30    
          Energy           -0.2954   -0.2918   -0.2918   -0.2887   -0.2787   -0.2759   -0.2759   -0.1848   -0.1517   -0.1517
          Occ. No.          0.0000    0.0000    0.0000    0.0000    0.0000    0.0000    0.0000    0.0000    0.0000    0.0000

        1 MO     1s         0.0000    0.0000   -0.0000    0.0000   -0.0000   -0.0000    0.0000    0.0000   -0.0000    0.0000
        2 MO     2s        -0.0000    0.0000   -0.0000   -0.0002   -0.0001    0.0000    0.0000   -0.0002   -0.0000    0.0000
        3 MO     3s        -0.0000    0.0000   -0.0000   -0.0023   -0.0010    0.0000    0.0000   -0.0068   -0.0000    0.0000
        4 MO     4s         0.0000   -0.0000    0.0000    0.0093    0.0023   -0.0000   -0.0000    0.0483    0.0000   -0.0000
        5 MO     5s        -0.0000    0.0000   -0.0000   -0.0443   -0.0088    0.0000    0.0000    0.0531   -0.0000    0.0000
        6 MO     6s        -0.0000    0.0000   -0.0000   -0.0324   -0.0109    0.0000    0.0000    0.9466    0.0000   -0.0000
        7 MO     7s         0.0000   -0.0000    0.0000    0.0130    0.0033   -0.0000   -0.0000    0.2806    0.0000   -0.0000
        8 MO     8s         0.0000   -0.0000   -0.0000    0.0067    0.0020   -0.0000   -0.0000    0.1250    0.0000   -0.0000
        9 MO     9s         0.0000   -0.0000   -0.0000    0.0033    0.0011   -0.0000   -0.0000    0.0366    0.0000   -0.0000
       10 MO    10s         0.0000   -0.0000   -0.0000    0.0001   -0.0000    0.0000    0.0000    0.0018    0.0000   -0.0000
       11 MO     2px        0.0000    0.0000    0.0000    0.0000    0.0000    0.0005    0.0000   -0.0000    0.0000   -0.0000
       12 MO     3px       -0.0000   -0.0007   -0.0000    0.0000    0.0000    0.0118    0.0000   -0.0000    0.0003   -0.0000
       13 MO     4px        0.0001    0.0036    0.0000   -0.0000   -0.0000   -0.0615   -0.0000    0.0000   -0.0002    0.0000
       14 MO     5px       -0.0011   -0.0451   -0.0000    0.0000    0.0000    0.4492    0.0003   -0.0000   -0.0005    0.0000
       15 MO     6px       -0.0004   -0.0165   -0.0000    0.0000    0.0000    0.2220    0.0002   -0.0000    0.0015   -0.0000
       16 MO     7px       -0.0001   -0.0062   -0.0000    0.0000    0.0000    0.0972    0.0001   -0.0000    0.0015   -0.0000
       17 MO     8px       -0.0000   -0.0008   -0.0000    0.0000    0.0000    0.0194    0.0000   -0.0000    0.0008   -0.0000
       18 MO     9px        0.0000    0.0005    0.0000   -0.0000   -0.0000   -0.0025   -0.0000   -0.0000    0.0002   -0.0000
       19 MO    10px        0.0000    0.0001    0.0000   -0.0000   -0.0000   -0.0004   -0.0000   -0.0000    0.0001   -0.0000
       20 MO     2py        0.0001    0.0000   -0.0000   -0.0000    0.0000   -0.0000    0.0005    0.0000   -0.0000   -0.0000
       21 MO     3py       -0.0055   -0.0000    0.0007   -0.0000    0.0000   -0.0000    0.0118    0.0000   -0.0000   -0.0003
       22 MO     4py        0.0562    0.0000   -0.0036    0.0000   -0.0000    0.0000   -0.0615    0.0000    0.0000    0.0002
       23 MO     5py       -0.8003   -0.0000    0.0451    0.0000    0.0000   -0.0003    0.4492   -0.0000    0.0000    0.0005
       24 MO     6py       -0.2817   -0.0000    0.0165    0.0000    0.0000   -0.0002    0.2220   -0.0000   -0.0000   -0.0015
       25 MO     7py       -0.1062   -0.0000    0.0062    0.0000    0.0000   -0.0001    0.0972   -0.0000   -0.0000   -0.0015
       26 MO     8py       -0.0103   -0.0000    0.0008    0.0000    0.0000   -0.0000    0.0194   -0.0000   -0.0000   -0.0008
       27 MO     9py        0.0074    0.0000   -0.0005    0.0000   -0.0000    0.0000   -0.0025   -0.0000   -0.0000   -0.0002
       28 MO    10py        0.0016    0.0000   -0.0001    0.0000   -0.0000    0.0000   -0.0004   -0.0000   -0.0000   -0.0001
       29 MO     2pz       -0.0000   -0.0000   -0.0000    0.0002   -0.0003   -0.0000   -0.0000    0.0000    0.0000   -0.0000
       30 MO     3pz        0.0000    0.0000    0.0000    0.0091   -0.0104   -0.0000    0.0000    0.0012    0.0000   -0.0000
       31 MO     4pz       -0.0000   -0.0000   -0.0000   -0.0704    0.0562    0.0000   -0.0000   -0.0053   -0.0000   -0.0000
       32 MO     5pz        0.0000    0.0000    0.0000    0.7852   -0.4564   -0.0000    0.0000    0.0082    0.0000    0.0000
       33 MO     6pz        0.0000    0.0000    0.0000    0.3104   -0.2121   -0.0000    0.0000    0.0239    0.0000   -0.0000
       34 MO     7pz        0.0000    0.0000    0.0000    0.1242   -0.0906   -0.0000    0.0000    0.0192    0.0000   -0.0000
       35 MO     8pz        0.0000    0.0000    0.0000    0.0169   -0.0172   -0.0000    0.0000    0.0082    0.0000   -0.0000
       36 MO     9pz       -0.0000   -0.0000   -0.0000   -0.0063    0.0030    0.0000   -0.0000    0.0025    0.0000   -0.0000
       37 MO    10pz       -0.0000   -0.0000   -0.0000   -0.0014    0.0005   -0.0000   -0.0000    0.0003    0.0000   -0.0000
       38 MO     3d2-      -0.0118    0.0000   -0.0298    0.0000   -0.0000    0.0000   -0.0229    0.0000    0.0000    0.0175
       39 MO     4d2-       0.2629   -0.0000    0.6939   -0.0000    0.0000   -0.0003    0.3443    0.0000   -0.0003   -0.2458
       40 MO     5d2-       0.1593   -0.0000    0.4309   -0.0000    0.0000   -0.0002    0.2541   -0.0000    0.0002    0.1498
       41 MO     6d2-       0.0613   -0.0000    0.1705   -0.0000    0.0000   -0.0001    0.1122   -0.0000    0.0005    0.4823
       42 MO     7d2-       0.0215   -0.0000    0.0614   -0.0000    0.0000   -0.0000    0.0464   -0.0000    0.0006    0.5497
       43 MO     8d2-      -0.0086    0.0000   -0.0221    0.0000    0.0000    0.0000   -0.0105   -0.0000    0.0004    0.3364
       44 MO     9d2-      -0.0068    0.0000   -0.0192    0.0000    0.0000    0.0000   -0.0124    0.0000    0.0001    0.1101
       45 MO    10d2-      -0.0025    0.0000   -0.0067    0.0000   -0.0000    0.0000   -0.0049    0.0000    0.0000    0.0015
       46 MO    11d2-      -0.0003    0.0000   -0.0010    0.0000   -0.0000    0.0000   -0.0010   -0.0000    0.0000    0.0003
       47 MO     3d1-      -0.0158   -0.0000    0.0184    0.0000   -0.0000    0.0000   -0.0361    0.0000   -0.0000   -0.0096
       48 MO     4d1-       0.3422    0.0000   -0.4510   -0.0000    0.0000   -0.0004    0.5658    0.0000    0.0002    0.1442
       49 MO     5d1-       0.2051    0.0000   -0.2792   -0.0000    0.0000   -0.0003    0.4175   -0.0000   -0.0001   -0.0888
       50 MO     6d1-       0.0782    0.0000   -0.1105   -0.0000    0.0000   -0.0001    0.1849   -0.0000   -0.0003   -0.2836
       51 MO     7d1-       0.0273    0.0000   -0.0395   -0.0000    0.0000   -0.0001    0.0761   -0.0000   -0.0003   -0.3232
       52 MO     8d1-      -0.0110   -0.0000    0.0142    0.0000   -0.0000    0.0000   -0.0169   -0.0000   -0.0002   -0.1975
       53 MO     9d1-      -0.0087   -0.0000    0.0124    0.0000   -0.0000    0.0000   -0.0205    0.0000   -0.0001   -0.0647
       54 MO    10d1-      -0.0032   -0.0000    0.0043    0.0000   -0.0000    0.0000   -0.0078    0.0000   -0.0000   -0.0008
       55 MO    11d1-      -0.0004   -0.0000    0.0006    0.0000   -0.0000    0.0000   -0.0016    0.0000   -0.0000   -0.0001
       56 MO     3d0       -0.0000    0.0000   -0.0000   -0.0194   -0.0408    0.0000    0.0000   -0.0014   -0.0000    0.0000
       57 MO     4d0        0.0000   -0.0000    0.0000    0.4176    0.6735   -0.0000   -0.0000    0.0007    0.0000   -0.0000
       58 MO     5d0        0.0000   -0.0000    0.0000    0.2720    0.4784   -0.0000   -0.0000    0.0260   -0.0000    0.0000
       59 MO     6d0        0.0000   -0.0000    0.0000    0.1106    0.2065   -0.0000   -0.0000    0.0280   -0.0000    0.0000
       60 MO     7d0        0.0000   -0.0000    0.0000    0.0408    0.0832   -0.0000   -0.0000    0.0219   -0.0000    0.0000
       61 MO     8d0       -0.0000    0.0000    0.0000   -0.0134   -0.0206    0.0000    0.0000    0.0082   -0.0000    0.0000
       62 MO     9d0       -0.0000    0.0000   -0.0000   -0.0125   -0.0229    0.0000    0.0000    0.0004   -0.0000    0.0000
       63 MO    10d0       -0.0000    0.0000   -0.0000   -0.0043   -0.0088    0.0000    0.0000   -0.0007   -0.0000    0.0000
       64 MO    11d0       -0.0000    0.0000   -0.0000   -0.0006   -0.0016    0.0000    0.0000   -0.0002   -0.0000    0.0000
       65 MO     3d1+      -0.0000   -0.0184   -0.0000    0.0000   -0.0000   -0.0361   -0.0000    0.0000    0.0096   -0.0000
       66 MO     4d1+       0.0005    0.4510    0.0000   -0.0000    0.0000    0.5658    0.0004   -0.0000   -0.1442    0.0002
       67 MO     5d1+       0.0003    0.2792    0.0000   -0.0000    0.0000    0.4175    0.0003   -0.0000    0.0888   -0.0001
       68 MO     6d1+       0.0001    0.1105    0.0000   -0.0000    0.0000    0.1849    0.0001   -0.0000    0.2836   -0.0003
       69 MO     7d1+       0.0000    0.0395    0.0000   -0.0000    0.0000    0.0761    0.0001   -0.0000    0.3232   -0.0003
       70 MO     8d1+      -0.0000   -0.0142   -0.0000    0.0000   -0.0000   -0.0169   -0.0000   -0.0000    0.1975   -0.0002
       71 MO     9d1+      -0.0000   -0.0124   -0.0000    0.0000   -0.0000   -0.0205   -0.0000   -0.0000    0.0647   -0.0001
       72 MO    10d1+      -0.0000   -0.0043   -0.0000    0.0000   -0.0000   -0.0078   -0.0000    0.0000    0.0008   -0.0000
       73 MO    11d1+      -0.0000   -0.0006   -0.0000    0.0000   -0.0000   -0.0016   -0.0000    0.0000    0.0001   -0.0000
       74 MO     3d2+       0.0000   -0.0298   -0.0000    0.0000   -0.0000    0.0229    0.0000    0.0000    0.0175   -0.0000
       75 MO     4d2+      -0.0004    0.6939    0.0000   -0.0000    0.0000   -0.3443   -0.0003   -0.0000   -0.2458    0.0003
       76 MO     5d2+      -0.0002    0.4309    0.0000   -0.0000    0.0000   -0.2541   -0.0002   -0.0000    0.1498   -0.0002
       77 MO     6d2+      -0.0001    0.1705    0.0000   -0.0000    0.0000   -0.1122   -0.0001   -0.0000    0.4823   -0.0005
       78 MO     7d2+      -0.0000    0.0614    0.0000   -0.0000    0.0000   -0.0464   -0.0000   -0.0000    0.5497   -0.0006
       79 MO     8d2+       0.0000   -0.0221   -0.0000    0.0000   -0.0000    0.0105    0.0000   -0.0000    0.3364   -0.0004
       80 MO     9d2+       0.0000   -0.0192   -0.0000    0.0000   -0.0000    0.0124    0.0000   -0.0000    0.1101   -0.0001
       81 MO    10d2+       0.0000   -0.0067   -0.0000    0.0000   -0.0000    0.0049    0.0000    0.0000    0.0015   -0.0000
       82 MO    11d2+       0.0000   -0.0010   -0.0000    0.0000   -0.0000    0.0010    0.0000    0.0000    0.0003   -0.0000
       83 MO     4f3-       0.0000   -0.0000    0.0000   -0.0000    0.0000   -0.0000    0.0000   -0.0000   -0.0000   -0.0000
       84 MO     5f3-       0.0000    0.0000   -0.0000    0.0000   -0.0000    0.0000   -0.0000    0.0000    0.0000    0.0000
       85 MO     6f3-       0.0000    0.0000   -0.0000   -0.0000   -0.0000    0.0000   -0.0000    0.0000    0.0000    0.0000
       86 MO     7f3-       0.0000    0.0000   -0.0000   -0.0000   -0.0000    0.0000   -0.0000    0.0000    0.0000   -0.0000
       87 MO     8f3-      -0.0000   -0.0000    0.0000    0.0000   -0.0000   -0.0000    0.0000   -0.0000   -0.0000    0.0000
       88 MO     9f3-      -0.0000    0.0000   -0.0000    0.0000   -0.0000    0.0000   -0.0000   -0.0000    0.0000    0.0000
       89 MO     4f2-       0.0009   -0.0000    0.0018   -0.0000   -0.0000    0.0000   -0.0005    0.0000   -0.0000   -0.0012
       90 MO     5f2-      -0.0001    0.0000   -0.0004   -0.0000    0.0000    0.0000   -0.0006    0.0000    0.0000    0.0004
       91 MO     6f2-       0.0002    0.0000   -0.0001   -0.0000    0.0000   -0.0000    0.0010   -0.0000    0.0000    0.0001
       92 MO     7f2-      -0.0002    0.0000   -0.0004   -0.0000    0.0000    0.0000   -0.0005   -0.0000    0.0000    0.0003
       93 MO     8f2-      -0.0001    0.0000   -0.0000    0.0000   -0.0000    0.0000   -0.0003    0.0000    0.0000    0.0001
       94 MO     9f2-       0.0009   -0.0000    0.0015   -0.0000    0.0000   -0.0000    0.0031    0.0000   -0.0000   -0.0009
       95 MO     4f1-       0.0007    0.0000   -0.0014   -0.0000   -0.0000   -0.0000    0.0014   -0.0000    0.0000    0.0008
       96 MO     5f1-      -0.0012   -0.0000    0.0004    0.0000    0.0000    0.0000   -0.0006    0.0000   -0.0000   -0.0001
       97 MO     6f1-      -0.0009   -0.0000    0.0004    0.0000    0.0000    0.0000   -0.0003    0.0000   -0.0000   -0.0000
       98 MO     7f1-      -0.0007   -0.0000    0.0004    0.0000    0.0000    0.0000   -0.0004    0.0000    0.0000    0.0000
       99 MO     8f1-       0.0003    0.0000   -0.0001   -0.0000   -0.0000   -0.0000    0.0001   -0.0000   -0.0000   -0.0002
      100 MO     9f1-      -0.0001    0.0000   -0.0005    0.0000    0.0000   -0.0000    0.0007   -0.0000    0.0000    0.0003
      101 MO     4f0        0.0000   -0.0000   -0.0000    0.0016    0.0024   -0.0000   -0.0000   -0.0005    0.0000   -0.0000
      102 MO     5f0        0.0000    0.0000    0.0000    0.0004   -0.0013    0.0000    0.0000    0.0009    0.0000   -0.0000
      103 MO     6f0       -0.0000    0.0000    0.0000   -0.0001   -0.0020    0.0000    0.0000    0.0002    0.0000   -0.0000
      104 MO     7f0        0.0000    0.0000    0.0000    0.0003   -0.0008    0.0000    0.0000    0.0001    0.0000   -0.0000
      105 MO     8f0        0.0000   -0.0000   -0.0000   -0.0000    0.0007   -0.0000   -0.0000    0.0002   -0.0000    0.0000
      106 MO     9f0       -0.0000    0.0000    0.0000   -0.0002   -0.0015    0.0000    0.0000   -0.0013   -0.0000    0.0000
      107 MO     4f1+       0.0000    0.0014    0.0000    0.0000    0.0000    0.0014    0.0000    0.0000   -0.0008    0.0000
      108 MO     5f1+      -0.0000   -0.0004   -0.0000   -0.0000   -0.0000   -0.0006   -0.0000    0.0000    0.0001   -0.0000
      109 MO     6f1+      -0.0000   -0.0004   -0.0000   -0.0000   -0.0000   -0.0003   -0.0000   -0.0000    0.0000   -0.0000
      110 MO     7f1+      -0.0000   -0.0004   -0.0000   -0.0000   -0.0000   -0.0004   -0.0000   -0.0000   -0.0000    0.0000
      111 MO     8f1+       0.0000    0.0001    0.0000    0.0000    0.0000    0.0001    0.0000    0.0000    0.0002   -0.0000
      112 MO     9f1+      -0.0000    0.0005    0.0000   -0.0000    0.0000    0.0007    0.0000   -0.0000   -0.0003    0.0000
      113 MO     4f2+      -0.0000    0.0018    0.0000   -0.0000    0.0000    0.0005    0.0000   -0.0000   -0.0012    0.0000
      114 MO     5f2+       0.0000   -0.0004   -0.0000   -0.0000    0.0000    0.0006    0.0000    0.0000    0.0004   -0.0000
      115 MO     6f2+      -0.0000   -0.0001   -0.0000   -0.0000    0.0000   -0.0010   -0.0000    0.0000    0.0001   -0.0000
      116 MO     7f2+       0.0000   -0.0004   -0.0000   -0.0000    0.0000    0.0005    0.0000    0.0000    0.0003   -0.0000
      117 MO     8f2+       0.0000   -0.0000   -0.0000    0.0000   -0.0000    0.0003    0.0000    0.0000    0.0001   -0.0000
      118 MO     9f2+      -0.0000    0.0015    0.0000   -0.0000   -0.0000   -0.0031   -0.0000   -0.0000   -0.0009    0.0000
      119 MO     4f3+       0.0000    0.0000    0.0000    0.0005   -0.0004   -0.0000   -0.0000   -0.0003   -0.0000    0.0000
      120 MO     5f3+       0.0000   -0.0000   -0.0000    0.0003    0.0001    0.0000   -0.0000    0.0007    0.0000   -0.0000
      121 MO     6f3+       0.0000   -0.0000   -0.0000    0.0001    0.0007   -0.0000   -0.0000    0.0002   -0.0000    0.0000
      122 MO     7f3+       0.0000   -0.0000   -0.0000    0.0001   -0.0001    0.0000   -0.0000    0.0001   -0.0000   -0.0000
      123 MO     8f3+      -0.0000    0.0000    0.0000   -0.0000   -0.0002    0.0000    0.0000    0.0001    0.0000   -0.0000
      124 MO     9f3+       0.0000   -0.0000    0.0000   -0.0001    0.0014   -0.0000   -0.0000   -0.0009   -0.0000    0.0000
      125 MO     5g4-      -0.0003    0.0000   -0.0000    0.0000    0.0000   -0.0000    0.0001   -0.0000    0.0000    0.0000
      126 MO     6g4-      -0.0002    0.0000   -0.0000   -0.0000    0.0000   -0.0000    0.0002    0.0000    0.0000    0.0000
      127 MO     7g4-      -0.0003   -0.0000    0.0000    0.0000   -0.0000   -0.0000    0.0000   -0.0000   -0.0000   -0.0000
      128 MO     8g4-      -0.0000    0.0000   -0.0000   -0.0000    0.0000   -0.0000    0.0003   -0.0000    0.0000    0.0000
      129 MO     5g3-       0.0000    0.0000   -0.0000    0.0000    0.0000   -0.0000    0.0000   -0.0000    0.0000    0.0000
      130 MO     6g3-       0.0000    0.0000   -0.0000    0.0000   -0.0000   -0.0000    0.0000    0.0000    0.0000    0.0000
      131 MO     7g3-       0.0000    0.0000   -0.0000    0.0000   -0.0000   -0.0000    0.0000   -0.0000    0.0000    0.0000
      132 MO     8g3-       0.0000    0.0000   -0.0000   -0.0000   -0.0000   -0.0000    0.0000    0.0000   -0.0000    0.0000
      133 MO     5g2-      -0.0003    0.0000   -0.0005    0.0000   -0.0000    0.0000   -0.0002    0.0000    0.0000    0.0003
      134 MO     6g2-      -0.0002    0.0000   -0.0003    0.0000   -0.0000    0.0000   -0.0002    0.0000    0.0000    0.0001
      135 MO     7g2-      -0.0001    0.0000   -0.0002    0.0000    0.0000    0.0000   -0.0000   -0.0000    0.0000    0.0000
      136 MO     8g2-      -0.0001    0.0000   -0.0001    0.0000   -0.0000    0.0000   -0.0002    0.0000    0.0000    0.0000
      137 MO     5g1-      -0.0007   -0.0000    0.0005    0.0000   -0.0000    0.0000   -0.0004   -0.0000   -0.0000   -0.0003
      138 MO     6g1-      -0.0005   -0.0000    0.0003    0.0000   -0.0000    0.0000   -0.0001    0.0000   -0.0000   -0.0001
      139 MO     7g1-      -0.0005   -0.0000    0.0002    0.0000   -0.0000    0.0000   -0.0001   -0.0000   -0.0000   -0.0000
      140 MO     8g1-      -0.0002   -0.0000    0.0002    0.0000    0.0000   -0.0000    0.0001    0.0000   -0.0000   -0.0001
      141 MO     5g0       -0.0000    0.0000   -0.0000   -0.0000   -0.0009    0.0000    0.0000   -0.0000   -0.0000    0.0000
      142 MO     6g0        0.0000    0.0000   -0.0000    0.0002   -0.0008    0.0000    0.0000   -0.0000   -0.0000   -0.0000
      143 MO     7g0        0.0000    0.0000   -0.0000    0.0002   -0.0004    0.0000    0.0000   -0.0000   -0.0000   -0.0000
      144 MO     8g0        0.0000    0.0000   -0.0000    0.0001   -0.0006    0.0000    0.0000   -0.0000   -0.0000    0.0000
      145 MO     5g1+      -0.0000   -0.0005   -0.0000    0.0000   -0.0000   -0.0004   -0.0000   -0.0000    0.0003   -0.0000
[...]
         3   13       5.42339252E-04  3.63845444E+00  4.43055522E+03  3.28211476E-15  4.43419367E+03
         3   15       5.14399910E-03  6.34215533E+03  6.25174171E+00  5.19789425E+04  5.83273496E+04
         3   17       5.62957365E-04  6.25174111E+00  6.34215622E+03  3.49156697E+01  6.38332363E+03
         4    8       1.24782703E-03  3.54163490E+01  2.51457500E-02  2.85682965E+01  6.40097913E+01
         4   10       6.91431469E-04  2.51457509E-02  3.54163493E+01  2.68695117E-02  3.54683645E+01
         4   12       5.34415749E-03  6.56213500E+00  7.99072720E+03  9.62362463E-16  7.99728933E+03
         4   14       5.42339252E-04  3.63845444E+00  4.43055522E+03  3.28211476E-15  4.43419367E+03
         4   16       5.14399910E-03  6.34215533E+03  6.25174171E+00  5.19789425E+04  5.83273496E+04
         4   18       5.62957365E-04  6.25174111E+00  6.34215622E+03  3.49156697E+01  6.38332363E+03
         5    7       6.91431471E-04  2.51457497E-02  3.54163494E+01  2.68695115E-02  3.54683647E+01
         5    9       1.24782704E-03  3.54163494E+01  2.51457504E-02  2.85682966E+01  6.40097917E+01
         5   11       5.34415750E-03  7.99072722E+03  6.56213532E+00  4.73399662E-13  7.99728935E+03
         5   13       5.42339207E-04  4.43055485E+03  3.63845485E+00  1.28723544E-12  4.43419331E+03
         5   15       5.62957321E-04  6.25174120E+00  6.34215572E+03  3.49156704E+01  6.38332313E+03
         5   17       5.14399914E-03  6.34215579E+03  6.25174206E+00  5.19789425E+04  5.83273500E+04
         6    8       6.91431471E-04  2.51457497E-02  3.54163494E+01  2.68695115E-02  3.54683647E+01
         6   10       1.24782704E-03  3.54163494E+01  2.51457504E-02  2.85682966E+01  6.40097917E+01
         6   12       5.34415750E-03  7.99072722E+03  6.56213532E+00  4.73399662E-13  7.99728935E+03
         6   14       5.42339207E-04  4.43055485E+03  3.63845485E+00  1.28723544E-12  4.43419331E+03
         6   16       5.62957321E-04  6.25174120E+00  6.34215572E+03  3.49156704E+01  6.38332313E+03
         6   18       5.14399914E-03  6.34215579E+03  6.25174206E+00  5.19789425E+04  5.83273500E+04
         7   11       2.32690490E-03  9.33612783E-03  2.31206527E+03  8.85357285E-18  2.31207461E+03
         7   13       2.19727029E-03  6.15055917E-02  1.52316706E+04  2.39542153E-16  1.52317321E+04
         7   15       8.65321520E-03  7.03175190E+04  3.72361897E-02  1.50454234E+04  8.53629796E+04
         7   17       7.12810032E-03  3.72361657E-02  7.03175193E+04  3.38988903E-01  7.03178955E+04
         8   12       2.32690490E-03  9.33612783E-03  2.31206527E+03  8.85357285E-18  2.31207461E+03
         8   14       2.19727029E-03  6.15055917E-02  1.52316706E+04  2.39542153E-16  1.52317321E+04
         8   16       8.65321520E-03  7.03175190E+04  3.72361897E-02  1.50454234E+04  8.53629796E+04
         8   18       7.12810032E-03  3.72361657E-02  7.03175193E+04  3.38988903E-01  7.03178955E+04
         9   11       2.32690497E-03  2.31206534E+03  9.33613383E-03  3.42845701E-13  2.31207468E+03
         9   13       2.19727031E-03  1.52316707E+04  6.15056053E-02  4.27500295E-12  1.52317322E+04
         9   15       7.12810005E-03  3.72361799E-02  7.03175166E+04  3.38988927E-01  7.03178929E+04
         9   17       8.65321525E-03  7.03175187E+04  3.72361675E-02  1.50454242E+04  8.53629801E+04
        10   12       2.32690497E-03  2.31206534E+03  9.33613383E-03  3.42845701E-13  2.31207468E+03
        10   14       2.19727031E-03  1.52316707E+04  6.15056053E-02  4.27500295E-12  1.52317322E+04
        10   16       7.12810005E-03  3.72361799E-02  7.03175166E+04  3.38988927E-01  7.03178929E+04
        10   18       8.65321525E-03  7.03175187E+04  3.72361675E-02  1.50454242E+04  8.53629801E+04
        11   13       1.49058103E-03  8.06826470E-14  4.36763331E-18  3.98993869E+03  3.98993869E+03
        11   15       1.75887889E-03  6.05762847E-02  8.08529299E+03  1.45644779E-15  8.08535357E+03
        11   17       1.75887878E-03  8.08529248E+03  6.05762938E-02  4.86066365E-14  8.08535306E+03
        12   14       1.49058103E-03  8.06826470E-14  4.36763331E-18  3.98993869E+03  3.98993869E+03
        12   16       1.75887889E-03  6.05762847E-02  8.08529299E+03  1.45644779E-15  8.08535357E+03
        12   18       1.75887878E-03  8.08529248E+03  6.05762938E-02  4.86066365E-14  8.08535306E+03
        13   15       2.61616344E-03  5.05721175E-03  6.75000778E+02  2.35317707E-20  6.75005836E+02
        13   17       2.61616342E-03  6.75000772E+02  5.05721218E-03  3.44311160E-14  6.75005829E+02
        14   16       2.61616344E-03  5.05721175E-03  6.75000778E+02  2.35317707E-20  6.75005836E+02
        14   18       2.61616342E-03  6.75000772E+02  5.05721218E-03  3.44311160E-14  6.75005829E+02
     -----------------------------------------------------------------------------------------------
--

++ Velocity transition strengths (SO states):
   ------------------------------------------
    for osc. strength at least    1.0000000000000001E-005

      From   To        Osc. strength     Einstein coefficients Ax, Ay, Az (sec-1)    Total A (sec-1)
     -----------------------------------------------------------------------------------------------
         1    3       2.22762094E-01  6.40456010E+04  7.79884782E+07  4.76016332E-12  7.80525238E+07
         1    5       2.22762095E-01  7.79884785E+07  6.40456011E+04  3.73330828E-10  7.80525241E+07
         1    7       4.33039683E-03  6.27601563E+00  1.55424034E+06  4.18453269E-14  1.55424662E+06
         1    9       4.33039628E-03  1.55424015E+06  6.27601877E+00  2.62112711E-09  1.55424642E+06
         1   11       2.39421929E-01  4.86826703E-09  5.28478772E-12  9.52129314E+07  9.52129314E+07
         1   13       1.53010752E-01  1.28094936E-09  9.99996796E-14  7.12430951E+07  7.12430951E+07
         1   15       1.43322097E-01  5.23778283E+02  6.99102102E+07  2.66561062E-14  6.99107339E+07
         1   17       1.43322096E-01  6.99102097E+07  5.23778260E+02  1.03056968E-09  6.99107335E+07
         2    4       2.22762094E-01  6.40456010E+04  7.79884782E+07  4.76016332E-12  7.80525238E+07
         2    6       2.22762095E-01  7.79884785E+07  6.40456011E+04  3.73330828E-10  7.80525241E+07
         2    8       4.33039683E-03  6.27601563E+00  1.55424034E+06  4.18453269E-14  1.55424662E+06
         2   10       4.33039628E-03  1.55424015E+06  6.27601877E+00  2.62112711E-09  1.55424642E+06
         2   12       2.39421929E-01  4.86826703E-09  5.28478772E-12  9.52129314E+07  9.52129314E+07
         2   14       1.53010752E-01  1.28094936E-09  9.99996796E-14  7.12430951E+07  7.12430951E+07
         2   16       1.43322097E-01  5.23778283E+02  6.99102102E+07  2.66561062E-14  6.99107339E+07
         2   18       1.43322096E-01  6.99102097E+07  5.23778260E+02  1.03056968E-09  6.99107335E+07
         3    7       1.40621184E-01  4.98668951E+03  3.54056972E+00  2.22324077E+03  7.21347086E+03
         3    9       9.73215400E-02  3.54056968E+00  4.98668942E+03  2.09103809E+00  4.99232103E+03
         3   11       3.48545551E-03  4.27983454E+00  5.21156441E+03  9.60247193E-16  5.21584424E+03
         3   13       6.93376679E-03  4.65175359E+01  5.66445142E+04  1.24139242E-14  5.66910317E+04
         3   15       2.75400496E-02  7.28793772E+04  7.18404014E+01  2.39324048E+05  3.12275265E+05
         3   17       6.44786134E-03  7.18403980E+01  7.28793812E+04  1.60760479E+02  7.31119820E+04
         4    8       1.40621184E-01  4.98668951E+03  3.54056972E+00  2.22324077E+03  7.21347086E+03
         4   10       9.73215400E-02  3.54056968E+00  4.98668942E+03  2.09103809E+00  4.99232103E+03
         4   12       3.48545551E-03  4.27983454E+00  5.21156441E+03  9.60247193E-16  5.21584424E+03
         4   14       6.93376679E-03  4.65175359E+01  5.66445142E+04  1.24139242E-14  5.66910317E+04
         4   16       2.75400496E-02  7.28793772E+04  7.18404014E+01  2.39324048E+05  3.12275265E+05
         4   18       6.44786134E-03  7.18403980E+01  7.28793812E+04  1.60760479E+02  7.31119820E+04
         5    7       9.73215428E-02  3.54056965E+00  4.98668956E+03  2.09103804E+00  4.99232117E+03
         5    9       1.40621184E-01  4.98668948E+03  3.54056960E+00  2.22324082E+03  7.21347087E+03
         5   11       3.48545574E-03  5.21156476E+03  4.27983441E+00  1.60975738E-13  5.21584459E+03
         5   13       6.93376661E-03  5.66445128E+04  4.65175374E+01  1.06632420E-12  5.66910303E+04
         5   15       6.44786106E-03  7.18403987E+01  7.28793780E+04  1.60760479E+02  7.31119789E+04
         5   17       2.75400498E-02  7.28793796E+04  7.18404019E+01  2.39324047E+05  3.12275267E+05
         6    8       9.73215428E-02  3.54056965E+00  4.98668956E+03  2.09103804E+00  4.99232117E+03
         6   10       1.40621184E-01  4.98668948E+03  3.54056960E+00  2.22324082E+03  7.21347087E+03
         6   12       3.48545574E-03  5.21156476E+03  4.27983441E+00  1.60975738E-13  5.21584459E+03
         6   14       6.93376661E-03  5.66445128E+04  4.65175374E+01  1.06632420E-12  5.66910303E+04
         6   16       6.44786106E-03  7.18403987E+01  7.28793780E+04  1.60760479E+02  7.31119789E+04
         6   18       2.75400498E-02  7.28793796E+04  7.18404019E+01  2.39324047E+05  3.12275267E+05
         7   11       1.53493475E-03  6.15856792E-03  1.52515115E+03  1.55508280E-20  1.52515731E+03
         7   13       4.54780217E-05  1.27302479E-03  3.15258736E+02  1.53151713E-15  3.15260009E+02
         7   15       2.10932587E-03  2.08080320E+04  1.10187765E-02  2.88172139E-01  2.08083312E+04
         7   17       2.10929667E-03  1.10187827E-02  2.08080321E+04  6.49390703E-06  2.08080431E+04
         8   12       1.53493475E-03  6.15856792E-03  1.52515115E+03  1.55508280E-20  1.52515731E+03
         8   14       4.54780217E-05  1.27302479E-03  3.15258736E+02  1.53151713E-15  3.15260009E+02
         8   16       2.10932587E-03  2.08080320E+04  1.10187765E-02  2.88172139E-01  2.08083312E+04
         8   18       2.10929667E-03  1.10187827E-02  2.08080321E+04  6.49390703E-06  2.08080431E+04
         9   11       1.53493485E-03  1.52515125E+03  6.15858050E-03  9.75549479E-13  1.52515740E+03
         9   13       4.54780367E-05  3.15258839E+02  1.27302186E-03  5.36357252E-12  3.15260112E+02
         9   15       2.10929650E-03  1.10187726E-02  2.08080304E+04  6.49365919E-06  2.08080414E+04
         9   17       2.10932590E-03  2.08080322E+04  1.10187719E-02  2.88177212E-01  2.08083314E+04
        10   12       1.53493485E-03  1.52515125E+03  6.15858050E-03  9.75549479E-13  1.52515740E+03
        10   14       4.54780367E-05  3.15258839E+02  1.27302186E-03  5.36357252E-12  3.15260112E+02
        10   16       2.10929650E-03  1.10187726E-02  2.08080304E+04  6.49365919E-06  2.08080414E+04
        10   18       2.10932590E-03  2.08080322E+04  1.10187719E-02  2.88177212E-01  2.08083314E+04
        11   13       4.22808929E-02  5.74533005E-16  2.36871602E-15  1.13176509E+05  1.13176509E+05
        11   15       1.73102446E-02  5.96171702E-01  7.95727817E+04  1.15424225E-14  7.95733778E+04
        11   17       1.73102441E-02  7.95727793E+04  5.96171861E-01  1.54852123E-14  7.95733755E+04
        12   14       4.22808929E-02  5.74533005E-16  2.36871602E-15  1.13176509E+05  1.13176509E+05
        12   16       1.73102446E-02  5.96171702E-01  7.95727817E+04  1.15424225E-14  7.95733778E+04
        12   18       1.73102441E-02  7.95727793E+04  5.96171861E-01  1.54852123E-14  7.95733755E+04
        13   15       7.88114129E-03  1.52348038E-02  2.03343374E+03  6.61326788E-17  2.03344897E+03
        13   17       7.88114135E-03  2.03343375E+03  1.52348083E-02  7.84464384E-13  2.03344899E+03
        14   16       7.88114129E-03  1.52348038E-02  2.03343374E+03  6.61326788E-17  2.03344897E+03
        14   18       7.88114135E-03  2.03343375E+03  1.52348083E-02  7.84464384E-13  2.03344899E+03
     -----------------------------------------------------------------------------------------------
--

++ Length and velocity gauge comparison (SO states):

 --------------------------------------------------
 A comparison between the dipole oscillator strengths in 
 length and velocity gauge will be performed

 All dipole oscillator differences above the tolerance of   0.10000000000000001       will be printed 

 Due to basis set deficiency these oscillator may be problematic 

 The tolerance is defined as ABS(1-O_l/O_v) 
 O_l : dipole oscillator strength in length gauge
 O_p : dipole oscillator strength in velocity gauge
 --------------------------------------------------

  Problematic transitions have been found

      From   To       Difference (%) Osc. st. (len.) Osc. st. (vel.)
     ---------------------------------------------------------------
         1    7            11.038232  4.80839605E-03  4.33039683E-03
         1    9            11.038232  4.80839546E-03  4.33039628E-03
         2    8            11.038232  4.80839605E-03  4.33039683E-03
         2   10            11.038232  4.80839546E-03  4.33039628E-03
         3    7            99.112632  1.24782703E-03  1.40621184E-01
         3    9            99.289539  6.91431469E-04  9.73215400E-02
         3   11            53.327376  5.34415749E-03  3.48545551E-03
         3   13            92.178288  5.42339252E-04  6.93376679E-03
         3   15            81.321751  5.14399910E-03  2.75400496E-02
         3   17            91.269084  5.62957365E-04  6.44786134E-03
         4    8            99.112632  1.24782703E-03  1.40621184E-01
         4   10            99.289539  6.91431469E-04  9.73215400E-02
         4   12            53.327376  5.34415749E-03  3.48545551E-03
         4   14            92.178288  5.42339252E-04  6.93376679E-03
         4   16            81.321751  5.14399910E-03  2.75400496E-02
         4   18            91.269084  5.62957365E-04  6.44786134E-03
         5    7            99.289539  6.91431471E-04  9.73215428E-02
         5    9            99.112632  1.24782704E-03  1.40621184E-01
         5   11            53.327367  5.34415750E-03  3.48545574E-03
         5   13            92.178289  5.42339207E-04  6.93376661E-03
         5   15            91.269084  5.62957321E-04  6.44786106E-03
         5   17            81.321751  5.14399914E-03  2.75400498E-02
         6    8            99.289539  6.91431471E-04  9.73215428E-02
         6   10            99.112632  1.24782704E-03  1.40621184E-01
         6   12            53.327367  5.34415750E-03  3.48545574E-03
         6   14            92.178289  5.42339207E-04  6.93376661E-03
         6   16            91.269084  5.62957321E-04  6.44786106E-03
         6   18            81.321751  5.14399914E-03  2.75400498E-02
         7   11            51.596340  2.32690490E-03  1.53493475E-03
         7   13          4731.499269  2.19727029E-03  4.54780217E-05
         7   15           310.236053  8.65321520E-03  2.10932587E-03
         7   17           237.937305  7.12810032E-03  2.10929667E-03
         8   12            51.596340  2.32690490E-03  1.53493475E-03
         8   14          4731.499269  2.19727029E-03  4.54780217E-05
         8   16           310.236053  8.65321520E-03  2.10932587E-03
         8   18           237.937305  7.12810032E-03  2.10929667E-03
         9   11            51.596335  2.32690497E-03  1.53493485E-03
         9   13          4731.497737  2.19727031E-03  4.54780367E-05
         9   15           237.937320  7.12810005E-03  2.10929650E-03
         9   17           310.236050  8.65321525E-03  2.10932590E-03
        10   12            51.596335  2.32690497E-03  1.53493485E-03
        10   14          4731.497737  2.19727031E-03  4.54780367E-05
        10   16           237.937320  7.12810005E-03  2.10929650E-03
        10   18           310.236050  8.65321525E-03  2.10932590E-03
        11   13            96.474575  1.49058103E-03  4.22808929E-02
        11   15            89.839087  1.75887889E-03  1.73102446E-02
        11   17            89.839087  1.75887878E-03  1.73102441E-02
        12   14            96.474575  1.49058103E-03  4.22808929E-02
        12   16            89.839087  1.75887889E-03  1.73102446E-02
        12   18            89.839087  1.75887878E-03  1.73102441E-02
        13   15            66.804764  2.61616344E-03  7.88114129E-03
        13   17            66.804765  2.61616342E-03  7.88114135E-03
        14   16            66.804764  2.61616344E-03  7.88114129E-03
        14   18            66.804765  2.61616342E-03  7.88114135E-03
     ---------------------------------------------------------------

 Number of problematic transitions =                    54

--

 Electric-dipole - electric-octupole not included
++ I/O STATISTICS
 
  I. General I/O information
  - - - - - - - - - - - - - - - - - - - - - - - - - - - - - - - - - - - - - - - - - - -
  Unit  Name          Flsize      Write/Read            MBytes           Write/Read
                      (MBytes)       Calls              In/Out           Time, sec.
  - - - - - - - - - - - - - - - - - - - - - - - - - - - - - - - - - - - - - - - - - - -
   1  SCRATCH           0.00 .       9/      45 .      0.0/      0.0 .       0/       0
   2  ANNI              0.00 .       0/       0 .      0.0/      0.0 .       0/       0
   3  RUNFILE          14.89 .     322/    9923 .      2.3/     72.0 .       0/       0
   4  ONEINT            5.68 .       0/   24849 .      0.0/   3743.6 .       0/       0
   5  JOBIPH            6.59 .       0/      92 .      0.0/      0.8 .       0/       0
   6  ORDINT          529.03 .       1/    4233 .      0.0/   1058.0 .       0/       0
  - - - - - - - - - - - - - - - - - - - - - - - - - - - - - - - - - - - - - - - - - - -
   *  TOTAL           556.21 .     332/   39142 .      2.3/   4874.4 .       0/       0
  - - - - - - - - - - - - - - - - - - - - - - - - - - - - - - - - - - - - - - - - - - -
 
  II. I/O Access Patterns
  - - - - - - - - - - - - - - - - - - - -
  Unit  Name               % of random
                         Write/Read calls
  - - - - - - - - - - - - - - - - - - - -
   1  SCRATCH             88.9/ 100.0
   2  ANNI                 0.0/   0.0
   3  RUNFILE             28.6/  10.8
   4  ONEINT               0.0/  15.5
   5  JOBIPH               0.0/  76.1
   6  ORDINT             100.0/   0.0
  - - - - - - - - - - - - - - - - - - - -
--
--- Stop Module: rassi at Thu Jan  9 20:42:38 2025 /rc=_RC_ALL_IS_WELL_ ---
*** files: xmldump
    saved to directory /home4/s4752295/Internship/Initial_simulations/Point_charge_model/1_electron/active_space_9_non_rel/Mo/varying_bond_length
--- Module rassi spent 4 seconds ---

.##################.
.# Happy landing! #.
.##################.

    Timing: Wall=62.46 User=45.73 System=10.77

###############################################################################
Hbrk Cluster
Job 14549854 for user s4752295
Finished at: Thu Jan  9 20:42:39 CET 2025

Job details:
============

Job ID                         : 14549854
Name                           : Mo_no_c_light
User                           : s4752295
Partition                      : regularmedium
Nodes                          : node75
Number of Nodes                : 1
Cores                          : 1
Number of Tasks                : 1
State                          : RUNNING  
Submit                         : 2025-01-09T20:41:28
Start                          : 2025-01-09T20:41:29
End                            : --
Reserved walltime              : 15:00:00
Used walltime                  : 00:01:10
Used CPU time                  : -- 
% User (Computation)           : --
% System (I/O)                 : --
Total memory reserved          : 25000M
Maximum memory used            : --

Acknowledgements:
=================

Please see this page for information about acknowledging Hbrk in your publications:

https://wiki.hpc.rug.nl/habrok/introduction/scientific_output

################################################################################
