   This run of MOLCAS is using the pymolcas driver

                             OPE
                             OPE          NMOL  CASOP  ENMOLC A   SO
                 OPE        NMOLC        AS  OP EN  MO LC     AS  OP
                OPENM       OL CA        SO  PE NM  OL CA     SOP EN
                OP EN      MO   LC       AS  OP ENMOL  CASO   PENMOL
                OP  EN     MO   LC       AS  OP EN     MO     LC ASO
               OP   E  NMOL  C  AS       OP  EN MO     LC     AS  OP
               OP  E   NMO   LC AS        OPEN  MO     LCASOP EN   M
               O  PEN   MO  LCA  SO
            OPE   NMO   L   CAS    OP
        OPENMOL  CASOP     ENMOL   CASOPE
     OPENMOLCA   SOPENMOLCASOPEN   MOLCASOPE
    OPENMOLCAS   OP           EN   MOL    CAS
    OPENMOLCAS       OP  ENM        O     LCA
    OPENMOLCAS    OPEN  MOLCASO     P  E  NMO
    OPENMOLCAS     OP               E  N  MOL
    OPENMOLCA   SO           PENM   O  L  CAS    OPEN    MO    LCAS
    OPENMOLCA   SOP           ENM   O  L  CAS   OP  EN  MOLC  AS   O
    OPENMOLCA   SOPE           NM      O  LCA   S      OP  EN MO
    OPENMOLC                AS         O  PEN   M      OL  CA  SOPE
    OPENMO        LCASOPE  NMOL        C  ASO   P      ENMOLC     AS
    OPE     NMO      LCA  SO     P     E   NM   OL  CA SO  PE N   MO
          OPENMOLCA            SOPE   NMO        LCAS  O    P  ENMO
     OPENMOLCASOPENMOLCASOPENMOLCASOPENMOLCA
        OPENMOLCASOPENMOLCASOPENMOLCASOPE
            OPENMOLCASOPENMOLCASOPENM
               OPENMOLCASOPENMOLCA        version: o91e1abe7de707b ?
                   OPENMOLCASO
                       OPE                tag:

 OpenMolcas is free software; you can redistribute it and/or modify it
 under the terms of the GNU Lesser General Public License version 2.1.
 OpenMolcas is distributed in the hope that it will be useful, but it
 is provided "as is" and without any express or implied warranties.
 For more details see the full text of the license in the file
 LICENSE or in <http://www.gnu.org/licenses/>.

                 Copyright (C) The OpenMolcas Authors
           For the author list and the recommended citation,
                   consult the file CONTRIBUTORS.md

           *************************************************
           * pymolcas version py2.10                       *
           *   build 3068ae8b88c9345ec6cfef6fef7f1169      *
           *   (after the EMIL interpreter by V. Veryazov) *
           *************************************************

configuration info
------------------
Host name: login1 (Linux)
C Compiler ID: GNU
C flags: -std=gnu99
Fortran Compiler ID: GNU
Fortran flags: -fno-aggressive-loop-optimizations -cpp -fdefault-integer-8 -fmax-stack-var-size=1048576
Definitions: _MOLCAS_;_I8_;_LINUX_;_MKL_
Parallel: OFF (GA=OFF)


   ----------------------------------------------------------------------------------------------------------------------------------------------
  |
  |           Project: molybdenum_so_cf
  |    Submitted from: /home4/s4752295/Internship/Initial_simulations/Point_charge_model/1_electron/active_space_9_non_rel/Mo/varying_bond_length
  |      Scratch area: /tmp/molybdenum_so_cf
  |   Save outputs to: /home4/s4752295/Internship/Initial_simulations/Point_charge_model/1_electron/active_space_9_non_rel/Mo/varying_bond_length
  |            Molcas: /home4/s4752295/Internship/Molcas/recomp_try/OpenMolcas-master/build
  |
  | Scratch area is empty
  |
  |    MOLCAS_DRIVER = /home4/s4752295/Internship/Molcas/bin/pymolcas
  |    MOLCAS_NPROCS = 1
  |    MOLCAS_SOURCE = /home4/s4752295/Internship/Molcas/recomp_try/OpenMolcas-master
  | MOLCAS_STRUCTURE = 0
  |
   ----------------------------------------------------------------------------------------------------------------------------------------------

++ ---------   Input file   ---------

&SEWARD
AMFi

CLIG
$R

Basis Set
Mo.ANO-rcc.Roos.21s18p13d6f4g2h.10s9p9d6f4g2h.
Spherical d
Mo            0.0       0.0     0.0
End of Basis

Xfield

4
0.000000,  0.00000,  1.3230     -1.0
1.145752,  0.00000, -0.6615     -1.0
-0.572876,  0.99225, -0.6615    -1.0
-0.572876, -0.99225, -0.6615    -1.0

End of input

&SCF
Occupied
18
Iterations
   50  100
End of Input

&RASSCF
LumOrb
Symmetry
1
Spin
2
Nactel
1 0 0
CIRoot
9 9 1
inactive
18
ras2
9
End of Input

>>> COPY molybdenum_so_cf.JobIph $SLURM_SUBMIT_DIR/molybdenum_so_cf.doublet.JobIph

>>> COPY $SLURM_SUBMIT_DIR/molybdenum_so_cf.doublet.JobIph ./JOB002

&RASSI
NROFJobIph
1 All
SpinOrbit
End of Input

EOF

-- ----------------------------------

--- Start Module: seward at Fri Jan 10 02:28:53 2025 ---

()()()()()()()()()()()()()()()()()()()()()()()()()()()()()()()()()()()()()()()()()()()()()()()()()()

                                              &SEWARD

                                   only a single process is used
                       available to each process: 4.1 GB of memory, 1 thread?
                                            pid: 1097837
()()()()()()()()()()()()()()()()()()()()()()()()()()()()()()()()()()()()()()()()()()()()()()()()()()

 The speed of LIGHT in this CALCULATION =   137.03599917700001     
               SEWARD will generate:
                  Multipole Moment integrals up to order  2
                  Kinetic Energy integrals
                  Nuclear Attraction integrals (point charge)
                  One-Electron Hamiltonian integrals
                  Velocity integrals
                  Relativistic Douglas-Kroll-Hess integrals:
                    - Parametrization         : EXP
                    - DKH order of Hamiltonian: 2
                    - DKH order of Properties : 0
                         - multipole moment operators
                         - electric potential operators
                         - contact operators
                  External field from     4 point(s) added to the one-electron Hamiltonian
                  Orbital angular momentum around ( 0.0000  0.0000  0.0000 )
                  Velocity quadrupole around ( 0.0000  0.0000  0.0000 )
                  Atomic mean-field integrals
                  Two-Electron Repulsion integrals

                   Integrals are discarded if absolute value <: 0.10E-13
                   Integral cutoff threshold is set to       <: 0.10E-15

++    Symmetry information:
      ---------------------

                    Character Table for C1 

                             E  
                    a        1  x, y, xy, Rz, z, xz, Ry, yz, Rx, I
--


++    Basis set information:
      ----------------------


      Basis set label: MO.ANO-RCC.ROOS.21S18P13D6F4G2H.10S9P9D6F4G2H......

      Electronic valence basis set:
      ------------------
      Associated Effective Charge  42.000000 au
      Associated Actual Charge     42.000000 au
      Nuclear Model: Point charge

      Shell  nPrim  nBasis  Cartesian Spherical Contaminant
         s      21      10        X                  
         p      18       9        X                  
         d      13       9                 X         
         f       6       6                 X         
         g       4       4                 X         
         h       2       2                 X         
--


++    Molecular structure info:
      -------------------------

                    ************************************************ 
                    **** Cartesian Coordinates / Bohr, Angstrom **** 
                    ************************************************ 

     Center  Label                x              y              z                     x              y              z
        1      MO               0.000000       0.000000       0.000000              0.000000       0.000000       0.000000
--


++    Operator info:
      --------------


  Net charge from external field:   -4.0000000000000000     
--


            Nuclear Potential Energy              0.00000000 au

                    Nuclear-External Field Potential Energy    -126.98411480 au
                    External Field Potential Energy               2.82089977 au 


            Total Nuclear Potential Energy           -126.98411480 au


      Basis set specifications :
      Symmetry species         a  
      Basis functions          182

 Sorry, Molden does not know how to handle
 functions with angular momentum larger than g
Note: The following floating-point exceptions are signalling: IEEE_UNDERFLOW_FLAG IEEE_DENORMAL
--- Stop Module: seward at Fri Jan 10 02:29:03 2025 /rc=_RC_ALL_IS_WELL_ ---
*** files: molybdenum_so_cf.GssOrb xmldump
    saved to directory /home4/s4752295/Internship/Initial_simulations/Point_charge_model/1_electron/active_space_9_non_rel/Mo/varying_bond_length
--- Module seward spent 9 seconds ---

*** symbolic link created: INPORB -> molybdenum_so_cf.GssOrb
--- Start Module: scf at Fri Jan 10 02:29:03 2025 ---

()()()()()()()()()()()()()()()()()()()()()()()()()()()()()()()()()()()()()()()()()()()()()()()()()()

                                                &SCF

                                   only a single process is used
                       available to each process: 4.1 GB of memory, 1 thread?
                                            pid: 1097899
()()()()()()()()()()()()()()()()()()()()()()()()()()()()()()()()()()()()()()()()()()()()()()()()()()

++    Input section:
      --------------

      Header of the integral files:
      
       Integrals generated by seward 4.2.0  , Fri Jan 10 02:28:53 2025


      Cartesian coordinates in Angstrom:
      -----------------------------------------------------
      No.  Label        X            Y            Z        
      -----------------------------------------------------
       1   MO         0.00000000   0.00000000   0.00000000
      -----------------------------------------------------
      Nuclear repulsion energy = -126.98411480
--

++    Orbital specifications:
      -----------------------

      Symmetry species               1
                                     a
      Frozen orbitals                0
      Occupied orbitals             18
      Secondary orbitals           164
      Deleted orbitals               0
      Total number of orbitals     182
      Number of basis functions    182
--

      Molecular charge                           6.000

++    Optimization specifications:
      ----------------------------

      SCF Algorithm: Conventional
      Minimized density differences are used
      Number of density matrices in core                5
      Maximum number of NDDO SCF iterations            50
      Maximum number of HF SCF iterations             100
      Threshold for SCF energy change            0.10E-08
      Threshold for density matrix               0.10E-03
      Threshold for Fock matrix                  0.15E-03
      Threshold for linear dependence            0.10E-08
      Threshold at which DIIS is turned on       0.15E+00
      Threshold at which QNR/C2DIIS is turned on 0.75E-01
      Threshold for Norm(delta) (QNR/C2DIIS)     0.20E-04
      DIIS extrapolation of the SCF procedure
      All orbitals punched on: SCFORB
--

      Detected guessorb starting orbitals                                             


++ Convergence information
                                   SCF        iterations: Energy and convergence statistics

Iter     Tot. SCF        One-elec.       Two-elec.     Energy      Max Dij or  Max Fij      DNorm      TNorm      AccCon     Time
         Energy          Energy          Energy        Change      Delta Norm                                                in Sec.

 The total and one-electron energies are shifted by a value of      4000. a.u.

   1   -57.589354981 -1336.629689467  1406.024449289   0.00E+00    0.12E+00*   0.28E+00*    0.85E+01   0.55E+03   None         1.
   2   -58.049262475 -1340.078146995  1409.012999322  -0.46E+00*   0.52E-01*   0.54E-01*    0.92E+00   0.55E+03   EDIIS        1.
   3   -58.069928558 -1338.205245068  1407.119431313  -0.21E-01*   0.12E-01*   0.14E-01*    0.19E+00   0.55E+03   EDIIS        1.
   4   -58.071884971 -1338.938612933  1407.850842765  -0.20E-02*   0.55E-02*   0.54E-02*    0.40E-01   0.55E+03   c2DIIS       1.
   5   -58.072095654 -1338.601794415  1407.513813564  -0.21E-03*   0.19E-02*   0.20E-02*    0.48E-02   0.55E+03   QNRc2DIIS    1.
   6   -58.072119015 -1338.749241738  1407.661237525  -0.23E-04*   0.73E-03*   0.85E-03*    0.11E-02   0.55E+03   QNRc2DIIS    1.
   7   -58.072122278 -1338.706183825  1407.618176350  -0.33E-05*   0.13E-03*   0.93E-04     0.11E-03   0.55E+03   QNRc2DIIS    1.
   8   -58.072122331 -1338.704436807  1407.616429278  -0.54E-07*   0.11E-04    0.23E-04     0.17E-04   0.55E+03   QNRc2DIIS    1.
   9   -58.072122333 -1338.703890395  1407.615882865  -0.13E-08*   0.71E-06    0.64E-06     0.41E-03   0.55E+03   QNRc2DIIS    1.
  10   -58.072122333 -1338.703902408  1407.615894878  -0.41E-11    0.40E-07    0.32E-07     0.91E-03   0.55E+03   QNRc2DIIS    1.

       Convergence after 10 Macro Iterations
--

 *****************************************************************************************************************************
 *                                                                                                                           *
 *                                             SCF/KS-DFT Program, Final results                                             *
 *                                                                                                                           *
 *                                                                                                                           *
 *                                                                                                                           *
 *                                                       Final Results                                                       *
 *                                                                                                                           *
 *****************************************************************************************************************************

::    Total SCF energy                              -4058.0721223328
      One-electron energy                           -5338.7039024084
      Two-electron energy                            1407.6158948783
      Nuclear repulsion energy                       -126.9841148027
      Kinetic energy (interpolated)                  4461.9077687757
      Virial theorem                                    0.9094926055
      Total spin, S(S+1)                                0.0000000000
      Total spin, S                                     0.0000000000
      Max non-diagonal density matrix element           0.0000000389
      Max non-diagonal Fock matrix element              0.0000000028


      All orbitals with orbital energies smaller than  E(LUMO)+0.5 are printed

++    Molecular orbitals:
      -------------------

      Title: SCF orbitals

      Molecular orbitals for symmetry species 1: a  

          Orbital            1         2         3         4         5         6         7         8         9        10    
          Energy         -739.3468 -107.7579  -96.2168  -96.2168  -96.2150  -19.9654  -16.0726  -16.0726  -16.0503   -9.7201
          Occ. No.          2.0000    2.0000    2.0000    2.0000    2.0000    2.0000    2.0000    2.0000    2.0000    2.0000

        1 MO     1s         1.0000   -0.0000    0.0000   -0.0000   -0.0000    0.0000   -0.0000   -0.0000    0.0000   -0.0000
        2 MO     2s         0.0000    1.0000   -0.0000    0.0000   -0.0004    0.0002   -0.0000   -0.0000   -0.0000   -0.0000
        3 MO     3s        -0.0000   -0.0002    0.0000   -0.0000    0.0000    1.0000   -0.0000   -0.0000   -0.0060    0.0000
        4 MO     4s         0.0000    0.0001   -0.0000    0.0000   -0.0000   -0.0028    0.0000    0.0000    0.0012    0.0000
        5 MO     5s        -0.0000   -0.0000    0.0000   -0.0000    0.0000    0.0005   -0.0000   -0.0000   -0.0002   -0.0000
        6 MO     6s         0.0000    0.0000   -0.0000    0.0000   -0.0000   -0.0005    0.0000    0.0000    0.0002    0.0000
        7 MO     7s        -0.0000   -0.0001    0.0000   -0.0000    0.0000    0.0012   -0.0000   -0.0000   -0.0004    0.0000
        8 MO     8s         0.0000    0.0000   -0.0000    0.0000   -0.0000   -0.0007    0.0000   -0.0000    0.0002   -0.0000
        9 MO     9s        -0.0000   -0.0000    0.0000   -0.0000    0.0000    0.0005   -0.0000   -0.0000   -0.0001    0.0000
       10 MO    10s         0.0000    0.0001   -0.0000    0.0000   -0.0000   -0.0003   -0.0000   -0.0000    0.0000    0.0000
       11 MO     2px        0.0000    0.0000    1.0000   -0.0071    0.0000   -0.0000    0.0002    0.0000    0.0000    0.0000
       12 MO     3px       -0.0000    0.0000   -0.0002    0.0000   -0.0000    0.0000    1.0000    0.0001    0.0000   -0.0000
       13 MO     4px        0.0000   -0.0000    0.0001   -0.0000    0.0000    0.0000   -0.0031   -0.0000   -0.0000    0.0000
       14 MO     5px       -0.0000    0.0000   -0.0000    0.0000   -0.0000   -0.0000    0.0007    0.0000    0.0000   -0.0000
       15 MO     6px        0.0000   -0.0000    0.0001   -0.0000    0.0000    0.0000   -0.0014   -0.0000   -0.0000    0.0000
       16 MO     7px       -0.0000    0.0000   -0.0000    0.0000   -0.0000   -0.0000    0.0009    0.0000    0.0000    0.0000
       17 MO     8px        0.0000   -0.0000    0.0001   -0.0000    0.0000    0.0000   -0.0006   -0.0000   -0.0000   -0.0000
       18 MO     9px       -0.0000    0.0000   -0.0001    0.0000   -0.0000   -0.0000    0.0004    0.0000    0.0000    0.0000
       19 MO    10px        0.0000   -0.0000    0.0000   -0.0000    0.0000    0.0000   -0.0003   -0.0000   -0.0000    0.0000
       20 MO     2py        0.0000    0.0000    0.0071    1.0000   -0.0000    0.0000   -0.0000    0.0002   -0.0000    0.0000
       21 MO     3py        0.0000   -0.0000   -0.0000   -0.0002    0.0000    0.0000   -0.0001    1.0000   -0.0000   -0.0005
       22 MO     4py        0.0000    0.0000    0.0000    0.0001   -0.0000   -0.0000    0.0000   -0.0031   -0.0000    0.0013
       23 MO     5py        0.0000   -0.0000   -0.0000   -0.0000    0.0000    0.0000   -0.0000    0.0007    0.0000   -0.0002
       24 MO     6py       -0.0000    0.0000    0.0000    0.0001   -0.0000   -0.0000    0.0000   -0.0014    0.0000    0.0003
       25 MO     7py        0.0000   -0.0000   -0.0000   -0.0000    0.0000    0.0000   -0.0000    0.0009   -0.0000    0.0000
       26 MO     8py       -0.0000    0.0000    0.0000    0.0001   -0.0000   -0.0000    0.0000   -0.0006   -0.0000   -0.0002
       27 MO     9py        0.0000   -0.0000   -0.0000   -0.0001    0.0000    0.0000   -0.0000    0.0004    0.0000    0.0002
       28 MO    10py       -0.0000    0.0000    0.0000    0.0000   -0.0000   -0.0000    0.0000   -0.0003    0.0000    0.0000
       29 MO     2pz        0.0000    0.0004   -0.0000    0.0000    1.0000   -0.0000   -0.0000   -0.0000    0.0002    0.0000
       30 MO     3pz       -0.0000    0.0000    0.0000   -0.0000   -0.0002    0.0060   -0.0000   -0.0000    1.0000    0.0000
       31 MO     4pz        0.0000   -0.0000   -0.0000    0.0000    0.0001    0.0006    0.0000    0.0000   -0.0044   -0.0000
       32 MO     5pz       -0.0000    0.0000    0.0000   -0.0000   -0.0000   -0.0002   -0.0000   -0.0000    0.0010    0.0000
       33 MO     6pz        0.0000   -0.0000   -0.0000    0.0000    0.0001    0.0003    0.0000    0.0000   -0.0020   -0.0000
       34 MO     7pz       -0.0000    0.0000    0.0000   -0.0000   -0.0001   -0.0002   -0.0000   -0.0000    0.0012   -0.0000
       35 MO     8pz        0.0000   -0.0000   -0.0000    0.0000    0.0001    0.0002    0.0000    0.0000   -0.0008   -0.0000
       36 MO     9pz       -0.0000    0.0000    0.0000   -0.0000   -0.0001   -0.0001   -0.0000   -0.0000    0.0004   -0.0000
       37 MO    10pz        0.0000   -0.0000   -0.0000    0.0000    0.0001    0.0000    0.0000    0.0000   -0.0003    0.0000
       38 MO     3d2-       0.0000    0.0000   -0.0000   -0.0000   -0.0000   -0.0000   -0.0000    0.0023   -0.0000    0.9456
       39 MO     4d2-       0.0000   -0.0000   -0.0000   -0.0000    0.0000    0.0000   -0.0000    0.0007   -0.0000   -0.0025
       40 MO     5d2-      -0.0000    0.0000    0.0000    0.0000    0.0000   -0.0000    0.0000   -0.0006   -0.0000    0.0022
       41 MO     6d2-      -0.0000   -0.0000   -0.0000   -0.0000   -0.0000    0.0000   -0.0000    0.0004    0.0000   -0.0015
       42 MO     7d2-       0.0000    0.0000    0.0000    0.0000   -0.0000   -0.0000    0.0000   -0.0002    0.0000    0.0010
       43 MO     8d2-      -0.0000   -0.0000    0.0000    0.0000    0.0000    0.0000   -0.0000    0.0001    0.0000   -0.0008
       44 MO     9d2-      -0.0000    0.0000   -0.0000   -0.0000    0.0000   -0.0000   -0.0000    0.0000   -0.0000    0.0005
       45 MO    10d2-       0.0000   -0.0000    0.0000    0.0000    0.0000    0.0000    0.0000   -0.0001    0.0000   -0.0005
       46 MO    11d2-      -0.0000    0.0000   -0.0000   -0.0000    0.0000    0.0000   -0.0000    0.0000    0.0000    0.0001
       47 MO     3d1-       0.0000   -0.0000    0.0000    0.0000   -0.0000   -0.0000   -0.0000    0.0051   -0.0000   -0.3252
       48 MO     4d1-       0.0000    0.0000   -0.0000   -0.0000    0.0000    0.0000   -0.0000    0.0010   -0.0000    0.0001
       49 MO     5d1-      -0.0000   -0.0000    0.0000    0.0000   -0.0000   -0.0000    0.0000   -0.0009    0.0000   -0.0001
       50 MO     6d1-      -0.0000    0.0000   -0.0000   -0.0000    0.0000    0.0000   -0.0000    0.0006   -0.0000    0.0002
       51 MO     7d1-       0.0000   -0.0000    0.0000    0.0000   -0.0000   -0.0000    0.0000   -0.0004    0.0000   -0.0002
       52 MO     8d1-      -0.0000    0.0000   -0.0000   -0.0000   -0.0000   -0.0000   -0.0000    0.0002   -0.0000    0.0003
       53 MO     9d1-       0.0000   -0.0000    0.0000    0.0000    0.0000    0.0000    0.0000   -0.0001    0.0000   -0.0002
       54 MO    10d1-      -0.0000    0.0000    0.0000    0.0000   -0.0000   -0.0000   -0.0000    0.0000    0.0000    0.0002
       55 MO    11d1-       0.0000   -0.0000   -0.0000   -0.0000    0.0000    0.0000    0.0000   -0.0000    0.0000   -0.0000
       56 MO     3d0       -0.0000   -0.0000   -0.0000    0.0000    0.0000   -0.0016   -0.0000   -0.0000   -0.0003    0.0000
       57 MO     4d0        0.0000    0.0000   -0.0000    0.0000    0.0000   -0.0003    0.0000    0.0000   -0.0007   -0.0000
       58 MO     5d0       -0.0000   -0.0000   -0.0000    0.0000    0.0000    0.0003   -0.0000   -0.0000    0.0006    0.0000
       59 MO     6d0        0.0000    0.0000    0.0000   -0.0000   -0.0000   -0.0003    0.0000    0.0000   -0.0003   -0.0000
       60 MO     7d0       -0.0000   -0.0000   -0.0000    0.0000    0.0000    0.0002    0.0000    0.0000    0.0001   -0.0000
       61 MO     8d0        0.0000    0.0000    0.0000   -0.0000   -0.0000   -0.0002   -0.0000   -0.0000    0.0001   -0.0000
       62 MO     9d0       -0.0000   -0.0000   -0.0000    0.0000    0.0000    0.0001    0.0000    0.0000   -0.0002    0.0000
       63 MO    10d0        0.0000    0.0000    0.0000   -0.0000   -0.0000   -0.0001   -0.0000   -0.0000    0.0003    0.0000
       64 MO    11d0       -0.0000   -0.0000   -0.0000    0.0000    0.0000    0.0000    0.0000    0.0000   -0.0000    0.0000
       65 MO     3d1+      -0.0000   -0.0000    0.0000   -0.0000    0.0000   -0.0000    0.0051    0.0000    0.0000   -0.0000
       66 MO     4d1+      -0.0000    0.0000   -0.0000    0.0000   -0.0000   -0.0000    0.0010    0.0000    0.0000    0.0000
       67 MO     5d1+       0.0000   -0.0000    0.0000   -0.0000    0.0000    0.0000   -0.0009   -0.0000   -0.0000   -0.0000
       68 MO     6d1+      -0.0000    0.0000   -0.0000    0.0000   -0.0000   -0.0000    0.0006    0.0000    0.0000    0.0000
       69 MO     7d1+       0.0000   -0.0000    0.0000   -0.0000    0.0000    0.0000   -0.0004   -0.0000   -0.0000   -0.0000
       70 MO     8d1+       0.0000    0.0000   -0.0000    0.0000   -0.0000   -0.0000    0.0002    0.0000    0.0000    0.0000
       71 MO     9d1+      -0.0000   -0.0000    0.0000   -0.0000    0.0000    0.0000   -0.0001   -0.0000   -0.0000   -0.0000
       72 MO    10d1+       0.0000    0.0000    0.0000   -0.0000   -0.0000   -0.0000    0.0000    0.0000    0.0000    0.0000
       73 MO    11d1+      -0.0000    0.0000   -0.0000    0.0000   -0.0000    0.0000   -0.0000   -0.0000   -0.0000   -0.0000
       74 MO     3d2+      -0.0000    0.0000    0.0000   -0.0000   -0.0000    0.0000   -0.0023   -0.0000   -0.0000   -0.0000
       75 MO     4d2+      -0.0000   -0.0000    0.0000   -0.0000    0.0000   -0.0000   -0.0007   -0.0000   -0.0000    0.0000
       76 MO     5d2+      -0.0000    0.0000   -0.0000    0.0000   -0.0000    0.0000    0.0006    0.0000    0.0000   -0.0000
       77 MO     6d2+       0.0000   -0.0000    0.0000   -0.0000    0.0000    0.0000   -0.0004   -0.0000   -0.0000    0.0000
       78 MO     7d2+      -0.0000    0.0000   -0.0000    0.0000   -0.0000   -0.0000    0.0002    0.0000    0.0000   -0.0000
       79 MO     8d2+       0.0000   -0.0000   -0.0000    0.0000   -0.0000    0.0000   -0.0001   -0.0000   -0.0000    0.0000
       80 MO     9d2+      -0.0000    0.0000    0.0000   -0.0000    0.0000   -0.0000   -0.0000   -0.0000    0.0000   -0.0000
       81 MO    10d2+       0.0000   -0.0000   -0.0000    0.0000   -0.0000    0.0000    0.0001    0.0000    0.0000    0.0000
       82 MO    11d2+       0.0000    0.0000    0.0000   -0.0000    0.0000   -0.0000   -0.0000   -0.0000    0.0000   -0.0000
       83 MO     4f3-      -0.0000    0.0000   -0.0000   -0.0000    0.0000    0.0000    0.0000   -0.0000   -0.0000    0.0000
       84 MO     5f3-      -0.0000    0.0000   -0.0000   -0.0000    0.0000    0.0000    0.0000   -0.0000    0.0000    0.0000
       85 MO     6f3-       0.0000   -0.0000    0.0000    0.0000   -0.0000   -0.0000   -0.0000    0.0000    0.0000   -0.0000
       86 MO     7f3-      -0.0000    0.0000   -0.0000   -0.0000    0.0000    0.0000    0.0000   -0.0000   -0.0000    0.0000
       87 MO     8f3-       0.0000   -0.0000   -0.0000   -0.0000   -0.0000    0.0000    0.0000   -0.0000    0.0000    0.0000
       88 MO     9f3-      -0.0000    0.0000   -0.0000   -0.0000   -0.0000   -0.0000   -0.0000    0.0000   -0.0000   -0.0000
       89 MO     4f2-      -0.0000   -0.0000   -0.0000   -0.0000    0.0000   -0.0000    0.0000   -0.0006    0.0000    0.0022
       90 MO     5f2-       0.0000   -0.0000   -0.0000   -0.0000    0.0000   -0.0000    0.0000   -0.0006    0.0000    0.0018
       91 MO     6f2-      -0.0000    0.0000    0.0000    0.0000   -0.0000    0.0000   -0.0000    0.0004   -0.0000   -0.0011
       92 MO     7f2-       0.0000   -0.0000   -0.0000   -0.0000    0.0000   -0.0000    0.0000   -0.0002    0.0000    0.0005
       93 MO     8f2-       0.0000   -0.0000   -0.0000   -0.0000    0.0000   -0.0000    0.0000   -0.0001    0.0000    0.0002
       94 MO     9f2-       0.0000    0.0000   -0.0000   -0.0000    0.0000    0.0000   -0.0000    0.0001   -0.0000   -0.0008
       95 MO     4f1-      -0.0000    0.0000   -0.0000   -0.0000    0.0000    0.0000    0.0000   -0.0004    0.0000   -0.0005
       96 MO     5f1-      -0.0000    0.0000   -0.0000   -0.0000    0.0000    0.0000    0.0000   -0.0004    0.0000   -0.0004
       97 MO     6f1-      -0.0000   -0.0000    0.0000    0.0000   -0.0000   -0.0000   -0.0000    0.0003   -0.0000    0.0003
       98 MO     7f1-       0.0000    0.0000   -0.0000   -0.0000    0.0000    0.0000    0.0000   -0.0002   -0.0000   -0.0002
       99 MO     8f1-       0.0000   -0.0000   -0.0000   -0.0000    0.0000    0.0000    0.0000   -0.0001    0.0000   -0.0001
      100 MO     9f1-       0.0000    0.0000    0.0000    0.0000   -0.0000   -0.0000   -0.0000    0.0003   -0.0000    0.0003
      101 MO     4f0       -0.0000    0.0000    0.0000   -0.0000   -0.0000   -0.0010    0.0000    0.0000   -0.0006    0.0000
      102 MO     5f0       -0.0000    0.0000    0.0000   -0.0000   -0.0000   -0.0009    0.0000    0.0000   -0.0006    0.0000
      103 MO     6f0        0.0000   -0.0000   -0.0000    0.0000    0.0000    0.0006   -0.0000   -0.0000    0.0004   -0.0000
      104 MO     7f0       -0.0000    0.0000    0.0000   -0.0000   -0.0000   -0.0004    0.0000    0.0000   -0.0003    0.0000
      105 MO     8f0        0.0000   -0.0000    0.0000   -0.0000   -0.0000   -0.0001    0.0000    0.0000   -0.0001    0.0000
      106 MO     9f0       -0.0000    0.0000   -0.0000    0.0000    0.0000    0.0003   -0.0000   -0.0000    0.0004   -0.0000
      107 MO     4f1+       0.0000   -0.0000   -0.0000    0.0000   -0.0000    0.0000   -0.0004   -0.0000   -0.0000   -0.0000
      108 MO     5f1+       0.0000   -0.0000   -0.0000    0.0000   -0.0000    0.0000   -0.0004   -0.0000   -0.0000   -0.0000
      109 MO     6f1+      -0.0000    0.0000    0.0000   -0.0000    0.0000   -0.0000    0.0003    0.0000    0.0000    0.0000
      110 MO     7f1+       0.0000   -0.0000   -0.0000    0.0000   -0.0000    0.0000   -0.0002   -0.0000   -0.0000   -0.0000
      111 MO     8f1+      -0.0000    0.0000   -0.0000    0.0000   -0.0000    0.0000   -0.0001   -0.0000   -0.0000   -0.0000
      112 MO     9f1+       0.0000   -0.0000    0.0000   -0.0000    0.0000   -0.0000    0.0003    0.0000    0.0000    0.0000
      113 MO     4f2+       0.0000   -0.0000    0.0000   -0.0000    0.0000   -0.0000    0.0006    0.0000    0.0000   -0.0000
      114 MO     5f2+       0.0000   -0.0000    0.0000   -0.0000    0.0000   -0.0000    0.0006    0.0000    0.0000   -0.0000
      115 MO     6f2+      -0.0000    0.0000   -0.0000    0.0000   -0.0000    0.0000   -0.0004   -0.0000   -0.0000    0.0000
      116 MO     7f2+      -0.0000   -0.0000    0.0000   -0.0000    0.0000   -0.0000    0.0002    0.0000    0.0000   -0.0000
      117 MO     8f2+      -0.0000   -0.0000    0.0000   -0.0000    0.0000   -0.0000    0.0001    0.0000    0.0000   -0.0000
      118 MO     9f2+       0.0000    0.0000    0.0000   -0.0000   -0.0000    0.0000   -0.0001   -0.0000   -0.0000    0.0000
      119 MO     4f3+      -0.0000    0.0000    0.0000   -0.0000    0.0000   -0.0007   -0.0000   -0.0000    0.0005   -0.0000
      120 MO     5f3+      -0.0000    0.0000    0.0000    0.0000    0.0000   -0.0006   -0.0000   -0.0000    0.0005   -0.0000
      121 MO     6f3+       0.0000   -0.0000    0.0000   -0.0000   -0.0000    0.0004    0.0000    0.0000   -0.0003    0.0000
      122 MO     7f3+      -0.0000    0.0000    0.0000   -0.0000    0.0000   -0.0002    0.0000    0.0000    0.0001   -0.0000
      123 MO     8f3+       0.0000   -0.0000    0.0000   -0.0000    0.0000   -0.0001    0.0000    0.0000    0.0000   -0.0000
      124 MO     9f3+      -0.0000    0.0000   -0.0000    0.0000    0.0000    0.0002   -0.0000   -0.0000   -0.0001    0.0000
      125 MO     5g4-      -0.0000    0.0000    0.0000    0.0000   -0.0000    0.0000    0.0000   -0.0006    0.0000    0.0000
      126 MO     6g4-       0.0000   -0.0000   -0.0000   -0.0000    0.0000   -0.0000   -0.0000    0.0005   -0.0000   -0.0000
      127 MO     7g4-      -0.0000    0.0000   -0.0000   -0.0000    0.0000    0.0000    0.0000   -0.0003    0.0000   -0.0000
      128 MO     8g4-       0.0000   -0.0000    0.0000    0.0000   -0.0000   -0.0000   -0.0000    0.0002   -0.0000    0.0000
      129 MO     5g3-       0.0000    0.0000    0.0000    0.0000    0.0000    0.0000   -0.0000    0.0000    0.0000   -0.0000
      130 MO     6g3-      -0.0000   -0.0000   -0.0000   -0.0000   -0.0000   -0.0000    0.0000   -0.0000   -0.0000    0.0000
      131 MO     7g3-       0.0000    0.0000    0.0000    0.0000    0.0000    0.0000   -0.0000    0.0000    0.0000   -0.0000
      132 MO     8g3-      -0.0000   -0.0000   -0.0000   -0.0000    0.0000   -0.0000   -0.0000    0.0000   -0.0000    0.0000
      133 MO     5g2-      -0.0000   -0.0000    0.0000    0.0000   -0.0000   -0.0000   -0.0000    0.0001   -0.0000   -0.0004
      134 MO     6g2-       0.0000    0.0000   -0.0000   -0.0000    0.0000    0.0000    0.0000   -0.0001    0.0000    0.0003
      135 MO     7g2-      -0.0000   -0.0000    0.0000    0.0000   -0.0000   -0.0000   -0.0000    0.0000   -0.0000   -0.0002
      136 MO     8g2-       0.0000    0.0000   -0.0000   -0.0000    0.0000    0.0000   -0.0000    0.0000   -0.0000    0.0001
      137 MO     5g1-      -0.0000   -0.0000    0.0000    0.0000   -0.0000    0.0000    0.0000   -0.0007    0.0000    0.0007
      138 MO     6g1-      -0.0000    0.0000   -0.0000   -0.0000    0.0000    0.0000   -0.0000    0.0005   -0.0000   -0.0005
      139 MO     7g1-       0.0000   -0.0000   -0.0000   -0.0000    0.0000   -0.0000    0.0000   -0.0004    0.0000    0.0003
      140 MO     8g1-      -0.0000    0.0000    0.0000    0.0000   -0.0000    0.0000   -0.0000    0.0003   -0.0000   -0.0002
      141 MO     5g0       -0.0000    0.0000   -0.0000    0.0000    0.0000   -0.0000    0.0000    0.0000   -0.0012   -0.0000
      142 MO     6g0        0.0000   -0.0000    0.0000    0.0000    0.0000    0.0000   -0.0000   -0.0000    0.0009    0.0000
      143 MO     7g0       -0.0000    0.0000    0.0000   -0.0000   -0.0000   -0.0000    0.0000    0.0000   -0.0006   -0.0000
      144 MO     8g0        0.0000    0.0000   -0.0000    0.0000    0.0000    0.0000   -0.0000   -0.0000    0.0004    0.0000
      145 MO     5g1+      -0.0000    0.0000    0.0000   -0.0000   -0.0000    0.0000   -0.0007   -0.0000   -0.0000    0.0000
      146 MO     6g1+       0.0000   -0.0000   -0.0000    0.0000    0.0000   -0.0000    0.0005    0.0000    0.0000   -0.0000
      147 MO     7g1+      -0.0000    0.0000   -0.0000    0.0000   -0.0000    0.0000   -0.0004   -0.0000   -0.0000    0.0000
      148 MO     8g1+       0.0000   -0.0000    0.0000   -0.0000    0.0000   -0.0000    0.0003    0.0000    0.0000   -0.0000
      149 MO     5g2+       0.0000   -0.0000   -0.0000    0.0000   -0.0000    0.0000   -0.0001   -0.0000   -0.0000    0.0000
      150 MO     6g2+      -0.0000   -0.0000    0.0000   -0.0000    0.0000   -0.0000    0.0001    0.0000    0.0000   -0.0000
      151 MO     7g2+       0.0000    0.0000   -0.0000    0.0000   -0.0000    0.0000   -0.0000   -0.0000   -0.0000    0.0000
      152 MO     8g2+      -0.0000   -0.0000    0.0000   -0.0000    0.0000   -0.0000   -0.0000   -0.0000    0.0000   -0.0000
      153 MO     5g3+       0.0000   -0.0000   -0.0000    0.0000   -0.0000    0.0005    0.0000    0.0000   -0.0007    0.0000
      154 MO     6g3+      -0.0000    0.0000    0.0000   -0.0000    0.0000   -0.0004   -0.0000   -0.0000    0.0005   -0.0000
      155 MO     7g3+       0.0000    0.0000   -0.0000    0.0000   -0.0000    0.0003    0.0000    0.0000   -0.0004    0.0000
      156 MO     8g3+      -0.0000   -0.0000    0.0000   -0.0000    0.0000   -0.0002    0.0000    0.0000    0.0002   -0.0000
      157 MO     5g4+       0.0000   -0.0000    0.0000   -0.0000   -0.0000    0.0000   -0.0006   -0.0000   -0.0000    0.0000
      158 MO     6g4+      -0.0000    0.0000   -0.0000    0.0000    0.0000   -0.0000    0.0005    0.0000    0.0000   -0.0000
      159 MO     7g4+       0.0000    0.0000   -0.0000    0.0000   -0.0000    0.0000   -0.0003   -0.0000   -0.0000   -0.0000
      160 MO     8g4+      -0.0000   -0.0000    0.0000   -0.0000    0.0000   -0.0000    0.0002    0.0000    0.0000    0.0000
      161 MO     6h5-      -0.0000   -0.0000    0.0000    0.0000   -0.0000   -0.0000   -0.0000    0.0001   -0.0000   -0.0007
      162 MO     7h5-       0.0000    0.0000   -0.0000   -0.0000    0.0000    0.0000    0.0000   -0.0001   -0.0000    0.0005
      163 MO     6h4-       0.0000    0.0000   -0.0000   -0.0000    0.0000    0.0000   -0.0000    0.0004   -0.0000    0.0000
      164 MO     7h4-      -0.0000   -0.0000   -0.0000   -0.0000    0.0000   -0.0000    0.0000   -0.0003    0.0000   -0.0000
      165 MO     6h3-      -0.0000   -0.0000   -0.0000   -0.0000   -0.0000   -0.0000    0.0000   -0.0000    0.0000    0.0000
      166 MO     7h3-       0.0000    0.0000    0.0000    0.0000    0.0000    0.0000   -0.0000    0.0000    0.0000   -0.0000
      167 MO     6h2-      -0.0000    0.0000    0.0000    0.0000   -0.0000    0.0000   -0.0000    0.0001   -0.0000   -0.0006
      168 MO     7h2-       0.0000   -0.0000   -0.0000   -0.0000    0.0000   -0.0000    0.0000   -0.0001    0.0000    0.0004
      169 MO     6h1-      -0.0000   -0.0000    0.0000    0.0000   -0.0000   -0.0000   -0.0000    0.0001   -0.0000    0.0002
      170 MO     7h1-       0.0000    0.0000   -0.0000   -0.0000    0.0000    0.0000    0.0000   -0.0001    0.0000   -0.0001
      171 MO     6h0       -0.0000    0.0000    0.0000   -0.0000   -0.0000   -0.0001    0.0000    0.0000   -0.0003   -0.0000
      172 MO     7h0        0.0000   -0.0000   -0.0000    0.0000    0.0000    0.0001   -0.0000   -0.0000    0.0002    0.0000
      173 MO     6h1+      -0.0000   -0.0000    0.0000   -0.0000    0.0000   -0.0000    0.0001    0.0000    0.0000    0.0000
      174 MO     7h1+       0.0000    0.0000   -0.0000    0.0000   -0.0000    0.0000   -0.0001   -0.0000   -0.0000   -0.0000
      175 MO     6h2+      -0.0000    0.0000   -0.0000    0.0000   -0.0000   -0.0000   -0.0001   -0.0000   -0.0000    0.0000
      176 MO     7h2+       0.0000   -0.0000    0.0000   -0.0000    0.0000    0.0000    0.0001    0.0000    0.0000   -0.0000
      177 MO     6h3+      -0.0000    0.0000    0.0000   -0.0000   -0.0000   -0.0002   -0.0000   -0.0000    0.0004   -0.0000
      178 MO     7h3+       0.0000   -0.0000   -0.0000    0.0000    0.0000    0.0001    0.0000    0.0000   -0.0003   -0.0000
      179 MO     6h4+      -0.0000   -0.0000   -0.0000    0.0000    0.0000   -0.0000    0.0004    0.0000    0.0000    0.0000
      180 MO     7h4+       0.0000    0.0000   -0.0000    0.0000   -0.0000    0.0000   -0.0003   -0.0000   -0.0000   -0.0000
      181 MO     6h5+      -0.0000    0.0000   -0.0000    0.0000   -0.0000   -0.0000   -0.0001   -0.0000   -0.0000    0.0000
      182 MO     7h5+       0.0000   -0.0000    0.0000   -0.0000    0.0000    0.0000    0.0001    0.0000    0.0000   -0.0000

          Orbital           11        12        13        14        15        16        17        18        19        20    
          Energy           -9.7201   -9.7026   -9.7026   -9.6986   -3.1907   -2.0861   -2.0861   -1.9149   -0.4315   -0.3446
          Occ. No.          2.0000    2.0000    2.0000    2.0000    2.0000    2.0000    2.0000    2.0000    0.0000    0.0000

        1 MO     1s         0.0000   -0.0000    0.0000    0.0000    0.0000   -0.0000   -0.0000   -0.0000    0.0000   -0.0000
        2 MO     2s         0.0000   -0.0000   -0.0000    0.0000    0.0001   -0.0000    0.0000    0.0000    0.0000   -0.0000
        3 MO     3s         0.0000    0.0000   -0.0000    0.0016   -0.0026    0.0000   -0.0000   -0.0009   -0.0004    0.0000
        4 MO     4s        -0.0000    0.0000    0.0000   -0.0027   -0.9921   -0.0000   -0.0000   -0.0886   -0.0054    0.0000
        5 MO     5s         0.0000    0.0000   -0.0000    0.0003   -0.0046   -0.0000   -0.0000    0.0011    0.9808   -0.0000
        6 MO     6s        -0.0000   -0.0000    0.0000   -0.0003    0.0028   -0.0000    0.0000   -0.0021   -0.1137   -0.0000
        7 MO     7s         0.0000    0.0000   -0.0000    0.0005    0.0033    0.0000   -0.0000    0.0072   -0.0604    0.0000
        8 MO     8s         0.0000   -0.0000    0.0000   -0.0000   -0.0097    0.0000   -0.0000   -0.0044   -0.0214    0.0000
        9 MO     9s        -0.0000    0.0000    0.0000   -0.0001    0.0055    0.0000    0.0000    0.0010    0.0027    0.0000
       10 MO    10s        -0.0000    0.0000   -0.0000    0.0000    0.0015    0.0000    0.0000    0.0005    0.0010    0.0000
       11 MO     2px       -0.0000   -0.0000    0.0000   -0.0000   -0.0000   -0.0000   -0.0001   -0.0000   -0.0000   -0.0000
       12 MO     3px        0.0005   -0.0055    0.0000   -0.0000    0.0000    0.0000    0.0027    0.0000    0.0000   -0.0000
       13 MO     4px       -0.0013    0.0046   -0.0000    0.0000   -0.0000    0.0000    0.9856    0.0000   -0.0000   -0.0000
       14 MO     5px        0.0002   -0.0009    0.0000   -0.0000    0.0000    0.0000    0.0080    0.0000   -0.0000   -0.0000
       15 MO     6px       -0.0003    0.0013   -0.0000    0.0000   -0.0000   -0.0000   -0.0077   -0.0000   -0.0000   -0.0000
       16 MO     7px       -0.0000   -0.0003    0.0000   -0.0000    0.0000   -0.0000   -0.0060   -0.0000    0.0000   -0.0000
       17 MO     8px        0.0002   -0.0003    0.0000   -0.0000    0.0000    0.0000    0.0091    0.0000    0.0000    0.0000
       18 MO     9px       -0.0002    0.0003   -0.0000    0.0000   -0.0000    0.0000    0.0008   -0.0000    0.0000    0.0000
       19 MO    10px       -0.0000    0.0000   -0.0000    0.0000   -0.0000   -0.0000   -0.0005   -0.0000    0.0000    0.0000
       20 MO     2py        0.0000   -0.0000   -0.0000    0.0000   -0.0000   -0.0001    0.0000   -0.0000    0.0000   -0.0000
       21 MO     3py       -0.0000   -0.0000   -0.0055   -0.0000    0.0000    0.0027   -0.0000    0.0000   -0.0000   -0.0000
       22 MO     4py        0.0000    0.0000    0.0046    0.0000    0.0000    0.9856   -0.0000   -0.0000    0.0000   -0.0073
       23 MO     5py       -0.0000   -0.0000   -0.0009   -0.0000   -0.0000    0.0080   -0.0000    0.0000   -0.0000   -0.1259
       24 MO     6py        0.0000    0.0000    0.0013    0.0000    0.0000   -0.0077    0.0000    0.0000   -0.0000   -0.0216
       25 MO     7py        0.0000   -0.0000   -0.0003   -0.0000   -0.0000   -0.0060    0.0000    0.0000   -0.0000   -0.0015
       26 MO     8py       -0.0000   -0.0000   -0.0003   -0.0000    0.0000    0.0091   -0.0000    0.0000   -0.0000    0.0029
       27 MO     9py        0.0000    0.0000    0.0003    0.0000   -0.0000    0.0008   -0.0000   -0.0000    0.0000    0.0017
       28 MO    10py        0.0000    0.0000    0.0000   -0.0000    0.0000   -0.0005    0.0000   -0.0000   -0.0000    0.0003
       29 MO     2pz       -0.0000    0.0000    0.0000   -0.0000   -0.0000    0.0000    0.0000   -0.0001    0.0000   -0.0000
       30 MO     3pz       -0.0000   -0.0000    0.0000    0.0003    0.0008    0.0000   -0.0000    0.0042    0.0000    0.0000
       31 MO     4pz        0.0000    0.0000    0.0000   -0.0029   -0.0855   -0.0000   -0.0000    0.9870   -0.0066    0.0000
       32 MO     5pz       -0.0000   -0.0000   -0.0000    0.0005    0.0038    0.0000    0.0000    0.0212    0.1281    0.0000
       33 MO     6pz        0.0000    0.0000    0.0000   -0.0005   -0.0021   -0.0000   -0.0000   -0.0125    0.0013   -0.0000
       34 MO     7pz        0.0000   -0.0000   -0.0000   -0.0001   -0.0019    0.0000    0.0000   -0.0148   -0.0098   -0.0000
       35 MO     8pz       -0.0000   -0.0000   -0.0000    0.0005    0.0017   -0.0000   -0.0000    0.0152   -0.0059   -0.0000
       36 MO     9pz        0.0000    0.0000    0.0000   -0.0004    0.0001   -0.0000   -0.0000    0.0025   -0.0024   -0.0000
       37 MO    10pz        0.0000    0.0000    0.0000   -0.0000   -0.0001   -0.0000   -0.0000   -0.0008   -0.0003    0.0000
       38 MO     3d2-       0.0000    0.0000    0.3251    0.0000    0.0000   -0.0020    0.0000   -0.0000    0.0000    0.0013
       39 MO     4d2-      -0.0000   -0.0000   -0.0023   -0.0000    0.0000    0.0843   -0.0000   -0.0000    0.0000    0.8111
       40 MO     5d2-       0.0000    0.0000    0.0020    0.0000   -0.0000   -0.0358    0.0000    0.0000    0.0000    0.2485
       41 MO     6d2-      -0.0000   -0.0000   -0.0012   -0.0000    0.0000    0.0027   -0.0000   -0.0000   -0.0000    0.0973
       42 MO     7d2-       0.0000    0.0000    0.0006    0.0000    0.0000    0.0047   -0.0000   -0.0000   -0.0000    0.0049
       43 MO     8d2-      -0.0000   -0.0000   -0.0003   -0.0000   -0.0000   -0.0041    0.0000    0.0000   -0.0000   -0.0134
       44 MO     9d2-       0.0000    0.0000    0.0001    0.0000   -0.0000    0.0011   -0.0000    0.0000   -0.0000   -0.0107
       45 MO    10d2-      -0.0000   -0.0000   -0.0002   -0.0000   -0.0000    0.0011   -0.0000    0.0000   -0.0000   -0.0001
       46 MO    11d2-       0.0000    0.0000    0.0001    0.0000    0.0000    0.0001   -0.0000    0.0000   -0.0000   -0.0003
       47 MO     3d1-      -0.0000    0.0000    0.9456    0.0000    0.0000   -0.0029    0.0000   -0.0000   -0.0000   -0.0008
       48 MO     4d1-       0.0000   -0.0000   -0.0044   -0.0000    0.0000    0.1218   -0.0000   -0.0000    0.0000   -0.4726
       49 MO     5d1-      -0.0000    0.0000    0.0039    0.0000   -0.0000   -0.0506    0.0000    0.0000   -0.0000   -0.1452
       50 MO     6d1-       0.0000   -0.0000   -0.0025   -0.0000    0.0000    0.0035   -0.0000    0.0000   -0.0000   -0.0571
       51 MO     7d1-      -0.0000    0.0000    0.0015    0.0000   -0.0000    0.0063   -0.0000    0.0000    0.0000   -0.0038
       52 MO     8d1-       0.0000   -0.0000   -0.0010   -0.0000    0.0000   -0.0051    0.0000   -0.0000    0.0000    0.0083
       53 MO     9d1-      -0.0000    0.0000    0.0005    0.0000   -0.0000    0.0013   -0.0000   -0.0000   -0.0000    0.0062
       54 MO    10d1-       0.0000   -0.0000   -0.0006   -0.0000    0.0000    0.0012   -0.0000   -0.0000   -0.0000   -0.0001
       55 MO    11d1-      -0.0000    0.0000    0.0002    0.0000   -0.0000    0.0001   -0.0000   -0.0000   -0.0000    0.0002
       56 MO     3d0       -0.0000   -0.0000   -0.0000    1.0000   -0.0027    0.0000   -0.0000    0.0018   -0.0005    0.0000
       57 MO     4d0        0.0000    0.0000    0.0000   -0.0048    0.0363    0.0000    0.0000   -0.0995   -0.0401    0.0000
       58 MO     5d0       -0.0000   -0.0000   -0.0000    0.0043   -0.0195   -0.0000   -0.0000    0.0415   -0.0332    0.0000
       59 MO     6d0        0.0000    0.0000    0.0000   -0.0028    0.0038   -0.0000   -0.0000   -0.0028   -0.0021    0.0000
       60 MO     7d0       -0.0000   -0.0000   -0.0000    0.0017    0.0019    0.0000    0.0000   -0.0058    0.0020    0.0000
       61 MO     8d0       -0.0000    0.0000    0.0000   -0.0011   -0.0028   -0.0000   -0.0000    0.0052    0.0005    0.0000
       62 MO     9d0        0.0000   -0.0000   -0.0000    0.0006    0.0011   -0.0000    0.0000   -0.0016    0.0004    0.0000
       63 MO    10d0        0.0000    0.0000    0.0000   -0.0006    0.0007    0.0000    0.0000   -0.0016    0.0001    0.0000
       64 MO    11d0       -0.0000   -0.0000   -0.0000    0.0002    0.0000   -0.0000    0.0000   -0.0001   -0.0000    0.0000
       65 MO     3d1+       0.3252    0.9456   -0.0000    0.0000   -0.0000   -0.0000   -0.0029   -0.0000   -0.0000   -0.0000
       66 MO     4d1+      -0.0001   -0.0044    0.0000   -0.0000    0.0000    0.0000    0.1218    0.0000   -0.0000   -0.0000
       67 MO     5d1+       0.0001    0.0039   -0.0000    0.0000   -0.0000   -0.0000   -0.0506   -0.0000   -0.0000   -0.0000
       68 MO     6d1+      -0.0002   -0.0025    0.0000   -0.0000    0.0000    0.0000    0.0035    0.0000    0.0000   -0.0000
       69 MO     7d1+       0.0002    0.0015   -0.0000    0.0000   -0.0000    0.0000    0.0063    0.0000   -0.0000   -0.0000
       70 MO     8d1+      -0.0003   -0.0010    0.0000   -0.0000   -0.0000   -0.0000   -0.0051   -0.0000    0.0000    0.0000
       71 MO     9d1+       0.0002    0.0005   -0.0000    0.0000    0.0000    0.0000    0.0013    0.0000    0.0000    0.0000
       72 MO    10d1+      -0.0002   -0.0006    0.0000   -0.0000   -0.0000    0.0000    0.0012    0.0000   -0.0000   -0.0000
       73 MO    11d1+       0.0000    0.0002   -0.0000    0.0000   -0.0000    0.0000    0.0001   -0.0000   -0.0000    0.0000
       74 MO     3d2+       0.9456   -0.3251    0.0000   -0.0000   -0.0000    0.0000    0.0020    0.0000   -0.0000   -0.0000
       75 MO     4d2+      -0.0025    0.0023   -0.0000    0.0000    0.0000   -0.0000   -0.0843   -0.0000   -0.0000   -0.0000
       76 MO     5d2+       0.0022   -0.0020    0.0000   -0.0000   -0.0000    0.0000    0.0358    0.0000   -0.0000   -0.0000
       77 MO     6d2+      -0.0015    0.0012   -0.0000    0.0000   -0.0000   -0.0000   -0.0027   -0.0000   -0.0000   -0.0000
       78 MO     7d2+       0.0010   -0.0006    0.0000   -0.0000    0.0000   -0.0000   -0.0047    0.0000    0.0000   -0.0000
       79 MO     8d2+      -0.0008    0.0003   -0.0000    0.0000   -0.0000    0.0000    0.0041    0.0000    0.0000    0.0000
       80 MO     9d2+       0.0005   -0.0001    0.0000   -0.0000    0.0000   -0.0000   -0.0011   -0.0000    0.0000    0.0000
       81 MO    10d2+      -0.0005    0.0002   -0.0000    0.0000    0.0000   -0.0000   -0.0011    0.0000   -0.0000    0.0000
       82 MO    11d2+       0.0001   -0.0001    0.0000   -0.0000    0.0000   -0.0000   -0.0001    0.0000    0.0000    0.0000
       83 MO     4f3-       0.0000    0.0000    0.0000   -0.0000    0.0000   -0.0000    0.0000    0.0000    0.0000   -0.0000
       84 MO     5f3-       0.0000    0.0000    0.0000   -0.0000    0.0000   -0.0000    0.0000   -0.0000   -0.0000    0.0000
       85 MO     6f3-      -0.0000   -0.0000   -0.0000    0.0000    0.0000   -0.0000    0.0000   -0.0000   -0.0000    0.0000
       86 MO     7f3-       0.0000    0.0000    0.0000   -0.0000   -0.0000    0.0000   -0.0000   -0.0000   -0.0000    0.0000
       87 MO     8f3-       0.0000    0.0000    0.0000   -0.0000   -0.0000    0.0000   -0.0000    0.0000    0.0000   -0.0000
       88 MO     9f3-      -0.0000   -0.0000   -0.0000    0.0000    0.0000    0.0000   -0.0000   -0.0000    0.0000   -0.0000
       89 MO     4f2-       0.0000    0.0000    0.0024    0.0000   -0.0000   -0.0251    0.0000    0.0000    0.0000    0.0655
       90 MO     5f2-       0.0000    0.0000    0.0020    0.0000   -0.0000   -0.0093    0.0000    0.0000   -0.0000   -0.0227
       91 MO     6f2-      -0.0000   -0.0000   -0.0010   -0.0000    0.0000   -0.0012    0.0000    0.0000   -0.0000   -0.0113
       92 MO     7f2-       0.0000    0.0000    0.0004    0.0000    0.0000    0.0027   -0.0000   -0.0000   -0.0000   -0.0068
       93 MO     8f2-       0.0000    0.0000    0.0001    0.0000    0.0000    0.0010   -0.0000   -0.0000    0.0000    0.0020
       94 MO     9f2-      -0.0000   -0.0000   -0.0005   -0.0000    0.0000    0.0007   -0.0000    0.0000   -0.0000   -0.0007
       95 MO     4f1-      -0.0000    0.0000    0.0006    0.0000   -0.0000   -0.0181    0.0000    0.0000    0.0000   -0.0244
       96 MO     5f1-      -0.0000    0.0000    0.0006    0.0000   -0.0000   -0.0054    0.0000    0.0000   -0.0000    0.0099
       97 MO     6f1-       0.0000   -0.0000   -0.0004   -0.0000    0.0000   -0.0008    0.0000    0.0000   -0.0000    0.0056
       98 MO     7f1-      -0.0000    0.0000    0.0003    0.0000   -0.0000    0.0008   -0.0000   -0.0000   -0.0000    0.0030
       99 MO     8f1-      -0.0000    0.0000    0.0002    0.0000   -0.0000    0.0001   -0.0000   -0.0000    0.0000   -0.0012
      100 MO     9f1-       0.0000   -0.0000   -0.0006   -0.0000    0.0000    0.0005   -0.0000    0.0000    0.0000    0.0002
      101 MO     4f0       -0.0000    0.0000    0.0000   -0.0010    0.0597    0.0000    0.0000   -0.0205   -0.0179   -0.0000
      102 MO     5f0       -0.0000   -0.0000    0.0000   -0.0007    0.0250    0.0000    0.0000   -0.0049    0.0267    0.0000
      103 MO     6f0        0.0000    0.0000   -0.0000    0.0002    0.0008   -0.0000   -0.0000   -0.0011    0.0047    0.0000
      104 MO     7f0        0.0000   -0.0000   -0.0000    0.0001   -0.0054    0.0000   -0.0000    0.0007    0.0017    0.0000
      105 MO     8f0        0.0000   -0.0000   -0.0000    0.0001   -0.0019   -0.0000   -0.0000    0.0000   -0.0007   -0.0000
      106 MO     9f0        0.0000    0.0000    0.0000   -0.0004   -0.0013   -0.0000   -0.0000    0.0005   -0.0009    0.0000
      107 MO     4f1+       0.0005    0.0006   -0.0000    0.0000   -0.0000   -0.0000   -0.0181   -0.0000    0.0000   -0.0000
      108 MO     5f1+       0.0004    0.0006   -0.0000    0.0000   -0.0000   -0.0000   -0.0054   -0.0000   -0.0000    0.0000
      109 MO     6f1+      -0.0003   -0.0004    0.0000   -0.0000    0.0000   -0.0000   -0.0008    0.0000   -0.0000    0.0000
      110 MO     7f1+       0.0002    0.0003   -0.0000    0.0000    0.0000    0.0000    0.0008    0.0000   -0.0000    0.0000
      111 MO     8f1+       0.0001    0.0002   -0.0000    0.0000    0.0000    0.0000    0.0001    0.0000    0.0000   -0.0000
      112 MO     9f1+      -0.0003   -0.0006    0.0000   -0.0000    0.0000    0.0000    0.0005    0.0000    0.0000    0.0000
      113 MO     4f2+       0.0022   -0.0024    0.0000   -0.0000   -0.0000    0.0000    0.0251   -0.0000   -0.0000   -0.0000
      114 MO     5f2+       0.0018   -0.0020    0.0000   -0.0000   -0.0000    0.0000    0.0093    0.0000   -0.0000    0.0000
      115 MO     6f2+      -0.0011    0.0010   -0.0000    0.0000   -0.0000    0.0000    0.0012   -0.0000   -0.0000    0.0000
      116 MO     7f2+       0.0005   -0.0004    0.0000   -0.0000    0.0000   -0.0000   -0.0027    0.0000    0.0000    0.0000
      117 MO     8f2+       0.0002   -0.0001    0.0000   -0.0000    0.0000   -0.0000   -0.0010   -0.0000    0.0000   -0.0000
      118 MO     9f2+      -0.0008    0.0005   -0.0000    0.0000    0.0000   -0.0000   -0.0007   -0.0000    0.0000    0.0000
      119 MO     4f3+       0.0000   -0.0000   -0.0000    0.0012    0.0381   -0.0000   -0.0000    0.0342   -0.0143    0.0000
      120 MO     5f3+       0.0000   -0.0000   -0.0000    0.0009    0.0160   -0.0000   -0.0000    0.0114    0.0162   -0.0000
      121 MO     6f3+      -0.0000    0.0000    0.0000   -0.0005    0.0005   -0.0000   -0.0000    0.0017    0.0026   -0.0000
      122 MO     7f3+       0.0000   -0.0000   -0.0000    0.0002   -0.0034    0.0000    0.0000   -0.0030    0.0010   -0.0000
      123 MO     8f3+       0.0000   -0.0000   -0.0000    0.0001   -0.0012    0.0000    0.0000   -0.0010   -0.0003    0.0000
      124 MO     9f3+      -0.0000    0.0000    0.0000   -0.0002   -0.0008    0.0000    0.0000   -0.0010   -0.0005    0.0000
      125 MO     5g4-       0.0000    0.0000    0.0008    0.0000   -0.0000   -0.0209    0.0000    0.0000   -0.0000   -0.0030
      126 MO     6g4-      -0.0000   -0.0000   -0.0005   -0.0000    0.0000    0.0036   -0.0000   -0.0000    0.0000   -0.0005
      127 MO     7g4-      -0.0000    0.0000    0.0003    0.0000   -0.0000    0.0013   -0.0000   -0.0000    0.0000    0.0001
      128 MO     8g4-       0.0000   -0.0000   -0.0001   -0.0000   -0.0000   -0.0015    0.0000    0.0000   -0.0000    0.0001
      129 MO     5g3-      -0.0000   -0.0000   -0.0000   -0.0000    0.0000    0.0000   -0.0000    0.0000    0.0000    0.0000
      130 MO     6g3-       0.0000    0.0000    0.0000    0.0000   -0.0000   -0.0000    0.0000   -0.0000    0.0000    0.0000
      131 MO     7g3-      -0.0000   -0.0000   -0.0000   -0.0000    0.0000   -0.0000    0.0000   -0.0000   -0.0000    0.0000
      132 MO     8g3-       0.0000    0.0000    0.0000    0.0000   -0.0000    0.0000   -0.0000    0.0000    0.0000   -0.0000
      133 MO     5g2-      -0.0000   -0.0000   -0.0008   -0.0000    0.0000    0.0014   -0.0000   -0.0000   -0.0000   -0.0035
      134 MO     6g2-       0.0000    0.0000    0.0006    0.0000   -0.0000   -0.0010    0.0000    0.0000   -0.0000   -0.0021
      135 MO     7g2-      -0.0000   -0.0000   -0.0003   -0.0000    0.0000   -0.0001    0.0000   -0.0000    0.0000   -0.0009
      136 MO     8g2-       0.0000    0.0000    0.0001    0.0000    0.0000    0.0007   -0.0000    0.0000   -0.0000   -0.0003
      137 MO     5g1-       0.0000   -0.0000   -0.0001   -0.0000   -0.0000   -0.0264    0.0000    0.0000   -0.0000    0.0144
      138 MO     6g1-      -0.0000    0.0000    0.0001    0.0000    0.0000    0.0042   -0.0000   -0.0000    0.0000    0.0056
      139 MO     7g1-       0.0000   -0.0000   -0.0002   -0.0000   -0.0000    0.0017   -0.0000   -0.0000    0.0000    0.0012
      140 MO     8g1-      -0.0000    0.0000    0.0003    0.0000   -0.0000   -0.0017    0.0000    0.0000   -0.0000    0.0007
      141 MO     5g0        0.0000    0.0000    0.0000   -0.0014    0.0039    0.0000    0.0000   -0.0455    0.0009   -0.0000
      142 MO     6g0       -0.0000   -0.0000   -0.0000    0.0010   -0.0011    0.0000   -0.0000    0.0079   -0.0019   -0.0000
      143 MO     7g0        0.0000    0.0000    0.0000   -0.0006   -0.0001    0.0000   -0.0000    0.0029   -0.0004   -0.0000
      144 MO     8g0       -0.0000   -0.0000   -0.0000    0.0003    0.0005   -0.0000    0.0000   -0.0040    0.0002   -0.0000
      145 MO     5g1+      -0.0007   -0.0001    0.0000   -0.0000    0.0000   -0.0000   -0.0264   -0.0000    0.0000    0.0000
      146 MO     6g1+       0.0005    0.0001   -0.0000    0.0000    0.0000    0.0000    0.0042    0.0000   -0.0000    0.0000
      147 MO     7g1+      -0.0003   -0.0002    0.0000   -0.0000   -0.0000    0.0000    0.0017   -0.0000   -0.0000    0.0000
      148 MO     8g1+       0.0002    0.0003   -0.0000    0.0000    0.0000   -0.0000   -0.0017   -0.0000    0.0000    0.0000
      149 MO     5g2+      -0.0004    0.0008   -0.0000    0.0000   -0.0000   -0.0000   -0.0014    0.0000    0.0000    0.0000
      150 MO     6g2+       0.0003   -0.0006    0.0000   -0.0000    0.0000    0.0000    0.0010    0.0000    0.0000    0.0000
      151 MO     7g2+      -0.0002    0.0003   -0.0000    0.0000   -0.0000    0.0000    0.0001   -0.0000    0.0000    0.0000
      152 MO     8g2+       0.0001   -0.0001    0.0000   -0.0000   -0.0000   -0.0000   -0.0007   -0.0000    0.0000    0.0000
      153 MO     5g3+      -0.0000    0.0000    0.0000   -0.0003   -0.0216    0.0000    0.0000   -0.0301    0.0043    0.0000
      154 MO     6g3+       0.0000   -0.0000   -0.0000    0.0002    0.0071    0.0000    0.0000    0.0059    0.0062    0.0000
      155 MO     7g3+      -0.0000    0.0000    0.0000   -0.0001    0.0005   -0.0000   -0.0000    0.0019   -0.0001    0.0000
      156 MO     8g3+       0.0000   -0.0000    0.0000    0.0000   -0.0031    0.0000    0.0000   -0.0031   -0.0005    0.0000
      157 MO     5g4+      -0.0000    0.0008   -0.0000    0.0000   -0.0000   -0.0000   -0.0209   -0.0000    0.0000   -0.0000
      158 MO     6g4+       0.0000   -0.0005    0.0000   -0.0000    0.0000    0.0000    0.0036    0.0000    0.0000   -0.0000
      159 MO     7g4+       0.0000    0.0003   -0.0000    0.0000   -0.0000    0.0000    0.0013   -0.0000   -0.0000    0.0000
      160 MO     8g4+      -0.0000   -0.0001    0.0000    0.0000   -0.0000   -0.0000   -0.0015   -0.0000    0.0000    0.0000
      161 MO     6h5-      -0.0000   -0.0000   -0.0004   -0.0000   -0.0000    0.0023   -0.0000    0.0000   -0.0000   -0.0105
      162 MO     7h5-       0.0000    0.0000    0.0003    0.0000    0.0000   -0.0009    0.0000   -0.0000   -0.0000   -0.0025
      163 MO     6h4-       0.0000   -0.0000   -0.0010   -0.0000    0.0000    0.0129   -0.0000   -0.0000    0.0000    0.0042
      164 MO     7h4-      -0.0000    0.0000    0.0007    0.0000   -0.0000   -0.0027    0.0000    0.0000   -0.0000    0.0009
      165 MO     6h3-      -0.0000    0.0000    0.0000    0.0000   -0.0000   -0.0000    0.0000    0.0000   -0.0000   -0.0000
      166 MO     7h3-       0.0000   -0.0000   -0.0000   -0.0000    0.0000    0.0000   -0.0000   -0.0000   -0.0000   -0.0000
      167 MO     6h2-      -0.0000   -0.0000   -0.0004   -0.0000    0.0000    0.0040   -0.0000   -0.0000   -0.0000   -0.0084
      168 MO     7h2-       0.0000    0.0000    0.0002    0.0000   -0.0000   -0.0010    0.0000    0.0000   -0.0000   -0.0021
      169 MO     6h1-       0.0000   -0.0000   -0.0013   -0.0000    0.0000    0.0023   -0.0000    0.0000   -0.0000    0.0075
      170 MO     7h1-      -0.0000    0.0000    0.0009    0.0000    0.0000   -0.0012    0.0000   -0.0000   -0.0000    0.0022
      171 MO     6h0        0.0000    0.0000    0.0000   -0.0016    0.0042    0.0000    0.0000   -0.0075    0.0006   -0.0000
      172 MO     7h0       -0.0000   -0.0000   -0.0000    0.0011   -0.0016   -0.0000   -0.0000    0.0025   -0.0008   -0.0000
      173 MO     6h1+      -0.0002   -0.0013    0.0000   -0.0000    0.0000    0.0000    0.0023    0.0000   -0.0000    0.0000
      174 MO     7h1+       0.0001    0.0009   -0.0000    0.0000   -0.0000   -0.0000   -0.0012   -0.0000   -0.0000    0.0000
      175 MO     6h2+      -0.0006    0.0004   -0.0000    0.0000    0.0000   -0.0000   -0.0040    0.0000    0.0000    0.0000
      176 MO     7h2+       0.0004   -0.0002    0.0000   -0.0000   -0.0000    0.0000    0.0010   -0.0000   -0.0000    0.0000
      177 MO     6h3+       0.0000   -0.0000    0.0000   -0.0003    0.0065   -0.0000   -0.0000    0.0151   -0.0006   -0.0000
      178 MO     7h3+      -0.0000    0.0000   -0.0000    0.0002   -0.0024   -0.0000   -0.0000   -0.0028   -0.0011   -0.0000
      179 MO     6h4+      -0.0000   -0.0010    0.0000   -0.0000    0.0000    0.0000    0.0129    0.0000   -0.0000    0.0000
      180 MO     7h4+       0.0000    0.0007   -0.0000    0.0000   -0.0000   -0.0000   -0.0027   -0.0000   -0.0000    0.0000
      181 MO     6h5+      -0.0007    0.0004   -0.0000    0.0000    0.0000   -0.0000   -0.0023    0.0000    0.0000    0.0000
      182 MO     7h5+       0.0005   -0.0003    0.0000   -0.0000   -0.0000    0.0000    0.0009    0.0000   -0.0000    0.0000

          Orbital           21        22        23        24        25        26        27        28        29        30    
          Energy           -0.3446   -0.3160   -0.3160   -0.3039   -0.2596   -0.2590   -0.2590   -0.1963   -0.1685   -0.1685
          Occ. No.          0.0000    0.0000    0.0000    0.0000    0.0000    0.0000    0.0000    0.0000    0.0000    0.0000

        1 MO     1s         0.0000    0.0000    0.0000    0.0000   -0.0000    0.0000   -0.0000   -0.0000   -0.0000   -0.0000
        2 MO     2s        -0.0000    0.0000   -0.0000   -0.0000   -0.0000   -0.0000   -0.0000   -0.0000    0.0000    0.0000
        3 MO     3s         0.0000   -0.0000    0.0000    0.0002    0.0001   -0.0000    0.0000    0.0002   -0.0000   -0.0000
        4 MO     4s         0.0000   -0.0000    0.0000    0.0090    0.0125   -0.0000    0.0000    0.0021   -0.0000   -0.0000
        5 MO     5s         0.0000    0.0000    0.0000   -0.1064    0.0853   -0.0000    0.0000    0.1234    0.0000    0.0000
        6 MO     6s         0.0000    0.0000   -0.0000   -0.0071    0.0594   -0.0000    0.0000    0.9626    0.0000    0.0000
        7 MO     7s        -0.0000   -0.0000    0.0000    0.0052   -0.0107    0.0000   -0.0000    0.1901    0.0000    0.0000
        8 MO     8s        -0.0000   -0.0000    0.0000    0.0066   -0.0086    0.0000   -0.0000    0.0778    0.0000    0.0000
        9 MO     9s        -0.0000   -0.0000    0.0000    0.0015   -0.0038    0.0000   -0.0000    0.0123    0.0000    0.0000
       10 MO    10s        -0.0000   -0.0000    0.0000    0.0000   -0.0006    0.0000   -0.0000   -0.0000    0.0000    0.0000
       11 MO     2px        0.0000   -0.0000    0.0000   -0.0000   -0.0000   -0.0000    0.0000    0.0000   -0.0000   -0.0000
       12 MO     3px        0.0000    0.0000   -0.0004    0.0000    0.0000    0.0000   -0.0007   -0.0000   -0.0000   -0.0000
       13 MO     4px        0.0073    0.0000   -0.0077    0.0000    0.0000    0.0000   -0.0788   -0.0000   -0.0000   -0.0036
       14 MO     5px        0.1259   -0.0000    0.9572    0.0000    0.0000    0.0000   -0.0896    0.0000   -0.0000   -0.0079
       15 MO     6px        0.0216   -0.0000    0.2231    0.0000    0.0000    0.0000   -0.0366   -0.0000    0.0000    0.0150
       16 MO     7px        0.0015   -0.0000    0.0732    0.0000    0.0000    0.0000   -0.0101   -0.0000    0.0000    0.0194
       17 MO     8px       -0.0029    0.0000   -0.0104    0.0000    0.0000    0.0000   -0.0061   -0.0000    0.0000    0.0089
       18 MO     9px       -0.0017    0.0000   -0.0115    0.0000    0.0000    0.0000   -0.0019   -0.0000    0.0000    0.0035
       19 MO    10px       -0.0003    0.0000   -0.0020   -0.0000   -0.0000   -0.0000    0.0001   -0.0000    0.0000    0.0005
       20 MO     2py       -0.0000    0.0000    0.0000    0.0000    0.0000    0.0000    0.0000    0.0000    0.0000   -0.0000
       21 MO     3py       -0.0000   -0.0004   -0.0000    0.0000   -0.0000   -0.0007   -0.0000    0.0000    0.0000   -0.0000
       22 MO     4py       -0.0000   -0.0077   -0.0000    0.0000   -0.0000   -0.0788   -0.0000    0.0000    0.0036   -0.0000
       23 MO     5py       -0.0000    0.9572    0.0000    0.0000   -0.0000   -0.0896   -0.0000   -0.0000    0.0079   -0.0000
       24 MO     6py       -0.0000    0.2231    0.0000    0.0000   -0.0000   -0.0366   -0.0000    0.0000   -0.0150    0.0000
       25 MO     7py       -0.0000    0.0732    0.0000    0.0000   -0.0000   -0.0101   -0.0000   -0.0000   -0.0194    0.0000
       26 MO     8py        0.0000   -0.0104   -0.0000    0.0000   -0.0000   -0.0061   -0.0000    0.0000   -0.0089    0.0000
       27 MO     9py        0.0000   -0.0115   -0.0000    0.0000   -0.0000   -0.0019   -0.0000   -0.0000   -0.0035    0.0000
       28 MO    10py        0.0000   -0.0020   -0.0000    0.0000    0.0000    0.0001    0.0000   -0.0000   -0.0005    0.0000
       29 MO     2pz        0.0000   -0.0000    0.0000    0.0000   -0.0000   -0.0000   -0.0000    0.0000    0.0000   -0.0000
       30 MO     3pz       -0.0000   -0.0000   -0.0000   -0.0005    0.0006   -0.0000    0.0000   -0.0000   -0.0000    0.0000
       31 MO     4pz       -0.0000   -0.0000   -0.0000    0.0037    0.0571   -0.0000    0.0000    0.0010    0.0000    0.0000
       32 MO     5pz        0.0000   -0.0000   -0.0000    0.9185   -0.2363    0.0000   -0.0000    0.0102    0.0000   -0.0000
       33 MO     6pz        0.0000   -0.0000   -0.0000    0.2500   -0.0896    0.0000   -0.0000    0.0643   -0.0000   -0.0000
       34 MO     7pz        0.0000   -0.0000   -0.0000    0.0977   -0.0611    0.0000   -0.0000    0.0657   -0.0000   -0.0000
       35 MO     8pz       -0.0000    0.0000   -0.0000   -0.0010   -0.0087    0.0000   -0.0000    0.0282   -0.0000    0.0000
       36 MO     9pz       -0.0000   -0.0000    0.0000   -0.0082   -0.0003    0.0000   -0.0000    0.0105   -0.0000    0.0000
       37 MO    10pz       -0.0000    0.0000    0.0000   -0.0016   -0.0002    0.0000   -0.0000    0.0015   -0.0000    0.0000
       38 MO     3d2-       0.0000    0.0004    0.0000    0.0000    0.0000    0.0011    0.0000    0.0000   -0.0006    0.0000
       39 MO     4d2-       0.0000    0.1267    0.0000    0.0000    0.0000    0.3616    0.0000    0.0000   -0.1678    0.0000
       40 MO     5d2-       0.0000    0.0760    0.0000    0.0000    0.0000    0.2688    0.0000   -0.0000    0.3416   -0.0000
       41 MO     6d2-       0.0000    0.0291    0.0000   -0.0000    0.0000    0.1691    0.0000   -0.0000    0.5303   -0.0000
       42 MO     7d2-       0.0000    0.0046    0.0000   -0.0000    0.0000    0.0602    0.0000   -0.0000    0.5061   -0.0000
       43 MO     8d2-      -0.0000   -0.0027   -0.0000   -0.0000    0.0000    0.0008    0.0000   -0.0000    0.2470   -0.0000
       44 MO     9d2-      -0.0000   -0.0040   -0.0000   -0.0000   -0.0000   -0.0193   -0.0000   -0.0000    0.0536   -0.0000
       45 MO    10d2-      -0.0000   -0.0006   -0.0000   -0.0000   -0.0000   -0.0046   -0.0000   -0.0000   -0.0095    0.0000
       46 MO    11d2-      -0.0000   -0.0001   -0.0000   -0.0000   -0.0000   -0.0007   -0.0000   -0.0000   -0.0009    0.0000
       47 MO     3d1-      -0.0000    0.0003    0.0000   -0.0000    0.0000    0.0020    0.0000   -0.0000    0.0003   -0.0000
       48 MO     4d1-      -0.0000   -0.0216   -0.0000   -0.0000    0.0000    0.6624    0.0000    0.0000    0.0912   -0.0000
       49 MO     5d1-      -0.0000    0.0615    0.0000   -0.0000    0.0000    0.4530    0.0000   -0.0000   -0.2023    0.0000
       50 MO     6d1-      -0.0000    0.0265    0.0000   -0.0000    0.0000    0.2849    0.0000   -0.0000   -0.3087    0.0000
       51 MO     7d1-      -0.0000    0.0070    0.0000    0.0000    0.0000    0.1015    0.0000   -0.0000   -0.2928    0.0000
       52 MO     8d1-       0.0000   -0.0019   -0.0000    0.0000    0.0000    0.0006    0.0000   -0.0000   -0.1430    0.0000
       53 MO     9d1-       0.0000   -0.0041   -0.0000   -0.0000   -0.0000   -0.0322   -0.0000   -0.0000   -0.0306    0.0000
       54 MO    10d1-      -0.0000   -0.0008   -0.0000   -0.0000   -0.0000   -0.0074   -0.0000    0.0000    0.0057   -0.0000
       55 MO    11d1-       0.0000   -0.0001   -0.0000    0.0000   -0.0000   -0.0012   -0.0000    0.0000    0.0005   -0.0000
       56 MO     3d0        0.0000    0.0000   -0.0000    0.0005    0.0023   -0.0000    0.0000    0.0001   -0.0000   -0.0000
       57 MO     4d0        0.0000   -0.0000    0.0000    0.2304    0.7489   -0.0000    0.0000   -0.0231   -0.0000   -0.0000
       58 MO     5d0        0.0000   -0.0000    0.0000    0.1155    0.4958   -0.0000    0.0000   -0.0328    0.0000    0.0000
       59 MO     6d0        0.0000   -0.0000    0.0000    0.0703    0.3069   -0.0000    0.0000   -0.0500    0.0000    0.0000
       60 MO     7d0        0.0000   -0.0000    0.0000    0.0167    0.1076   -0.0000    0.0000   -0.0365    0.0000    0.0000
       61 MO     8d0       -0.0000    0.0000   -0.0000   -0.0052   -0.0001    0.0000    0.0000   -0.0128    0.0000    0.0000
       62 MO     9d0       -0.0000    0.0000   -0.0000   -0.0084   -0.0348    0.0000   -0.0000    0.0004    0.0000    0.0000
       63 MO    10d0       -0.0000   -0.0000   -0.0000   -0.0010   -0.0079    0.0000   -0.0000    0.0013   -0.0000   -0.0000
       64 MO    11d0       -0.0000    0.0000   -0.0000   -0.0003   -0.0012    0.0000   -0.0000    0.0002   -0.0000   -0.0000
       65 MO     3d1+       0.0008   -0.0000    0.0003   -0.0000   -0.0000   -0.0000    0.0020    0.0000   -0.0000   -0.0003
       66 MO     4d1+       0.4726    0.0000   -0.0216   -0.0000   -0.0000   -0.0000    0.6624    0.0000   -0.0000   -0.0912
       67 MO     5d1+       0.1452   -0.0000    0.0615   -0.0000   -0.0000   -0.0000    0.4530    0.0000    0.0000    0.2023
       68 MO     6d1+       0.0571   -0.0000    0.0265   -0.0000   -0.0000   -0.0000    0.2849    0.0000    0.0000    0.3087
       69 MO     7d1+       0.0038   -0.0000    0.0070   -0.0000   -0.0000   -0.0000    0.1015    0.0000    0.0000    0.2928
       70 MO     8d1+      -0.0083    0.0000   -0.0019    0.0000   -0.0000   -0.0000    0.0006    0.0000    0.0000    0.1430
       71 MO     9d1+      -0.0062    0.0000   -0.0041    0.0000    0.0000    0.0000   -0.0322   -0.0000    0.0000    0.0306
       72 MO    10d1+       0.0001    0.0000   -0.0008    0.0000    0.0000    0.0000   -0.0074   -0.0000   -0.0000   -0.0057
       73 MO    11d1+      -0.0002    0.0000   -0.0001    0.0000    0.0000    0.0000   -0.0012   -0.0000   -0.0000   -0.0005
       74 MO     3d2+       0.0013    0.0000   -0.0004    0.0000    0.0000    0.0000   -0.0011    0.0000   -0.0000   -0.0006
       75 MO     4d2+       0.8111    0.0000   -0.1267    0.0000    0.0000    0.0000   -0.3616   -0.0000   -0.0000   -0.1678
       76 MO     5d2+       0.2485    0.0000   -0.0760    0.0000    0.0000    0.0000   -0.2688   -0.0000    0.0000    0.3416
       77 MO     6d2+       0.0973    0.0000   -0.0291    0.0000    0.0000    0.0000   -0.1691   -0.0000    0.0000    0.5303
       78 MO     7d2+       0.0049    0.0000   -0.0046    0.0000    0.0000    0.0000   -0.0602   -0.0000    0.0000    0.5061
       79 MO     8d2+      -0.0134   -0.0000    0.0027   -0.0000    0.0000    0.0000   -0.0008   -0.0000    0.0000    0.2470
       80 MO     9d2+      -0.0107   -0.0000    0.0040   -0.0000   -0.0000   -0.0000    0.0193    0.0000    0.0000    0.0536
       81 MO    10d2+      -0.0001   -0.0000    0.0006   -0.0000   -0.0000   -0.0000    0.0046    0.0000   -0.0000   -0.0095
       82 MO    11d2+      -0.0003   -0.0000    0.0001   -0.0000   -0.0000   -0.0000    0.0007    0.0000   -0.0000   -0.0009
       83 MO     4f3-      -0.0000   -0.0000   -0.0000   -0.0000   -0.0000    0.0000    0.0000   -0.0000   -0.0000    0.0000
       84 MO     5f3-       0.0000    0.0000    0.0000    0.0000   -0.0000   -0.0000   -0.0000    0.0000    0.0000   -0.0000
       85 MO     6f3-       0.0000    0.0000    0.0000   -0.0000   -0.0000   -0.0000   -0.0000    0.0000    0.0000   -0.0000
       86 MO     7f3-       0.0000    0.0000    0.0000   -0.0000   -0.0000   -0.0000   -0.0000    0.0000    0.0000   -0.0000
       87 MO     8f3-      -0.0000   -0.0000   -0.0000    0.0000   -0.0000   -0.0000    0.0000   -0.0000   -0.0000    0.0000
       88 MO     9f3-       0.0000   -0.0000   -0.0000    0.0000    0.0000   -0.0000   -0.0000    0.0000   -0.0000    0.0000
       89 MO     4f2-       0.0000    0.0116    0.0000   -0.0000    0.0000    0.0888    0.0000    0.0000   -0.0272    0.0000
       90 MO     5f2-      -0.0000    0.0014    0.0000    0.0000   -0.0000   -0.0339   -0.0000   -0.0000    0.0010   -0.0000
       91 MO     6f2-      -0.0000   -0.0014   -0.0000    0.0000   -0.0000   -0.0221   -0.0000    0.0000   -0.0072    0.0000
       92 MO     7f2-      -0.0000   -0.0013   -0.0000    0.0000   -0.0000   -0.0169   -0.0000    0.0000   -0.0097    0.0000
       93 MO     8f2-       0.0000    0.0001    0.0000    0.0000    0.0000    0.0074    0.0000   -0.0000    0.0109   -0.0000
       94 MO     9f2-      -0.0000   -0.0004   -0.0000    0.0000   -0.0000   -0.0007   -0.0000    0.0000    0.0012   -0.0000
       95 MO     4f1-      -0.0000   -0.0069   -0.0000   -0.0000    0.0000    0.0241    0.0000   -0.0000    0.0072   -0.0000
       96 MO     5f1-       0.0000    0.0111    0.0000    0.0000   -0.0000   -0.0195   -0.0000   -0.0000    0.0036   -0.0000
       97 MO     6f1-       0.0000    0.0064    0.0000    0.0000   -0.0000   -0.0168   -0.0000   -0.0000    0.0081   -0.0000
       98 MO     7f1-       0.0000    0.0035    0.0000    0.0000   -0.0000   -0.0122   -0.0000   -0.0000    0.0093   -0.0000
       99 MO     8f1-      -0.0000   -0.0015   -0.0000   -0.0000    0.0000    0.0073    0.0000    0.0000   -0.0092    0.0000
      100 MO     9f1-       0.0000   -0.0002   -0.0000    0.0000    0.0000    0.0002    0.0000    0.0000   -0.0008    0.0000
      101 MO     4f0       -0.0000    0.0000   -0.0000   -0.0135   -0.0294    0.0000   -0.0000    0.0158    0.0000    0.0000
      102 MO     5f0        0.0000   -0.0000    0.0000    0.0090   -0.0109    0.0000   -0.0000   -0.0176   -0.0000   -0.0000
      103 MO     6f0       -0.0000   -0.0000    0.0000    0.0054   -0.0125    0.0000   -0.0000   -0.0030   -0.0000   -0.0000
      104 MO     7f0        0.0000   -0.0000   -0.0000    0.0037   -0.0077    0.0000   -0.0000   -0.0007   -0.0000   -0.0000
      105 MO     8f0        0.0000    0.0000   -0.0000   -0.0011    0.0070   -0.0000    0.0000   -0.0005    0.0000    0.0000
      106 MO     9f0        0.0000   -0.0000    0.0000    0.0000    0.0011   -0.0000    0.0000    0.0004    0.0000    0.0000
      107 MO     4f1+       0.0244    0.0000   -0.0069   -0.0000   -0.0000   -0.0000    0.0241   -0.0000   -0.0000   -0.0072
      108 MO     5f1+      -0.0099   -0.0000    0.0111    0.0000    0.0000    0.0000   -0.0195    0.0000   -0.0000   -0.0036
      109 MO     6f1+      -0.0056   -0.0000    0.0064    0.0000    0.0000    0.0000   -0.0168   -0.0000   -0.0000   -0.0081
      110 MO     7f1+      -0.0030   -0.0000    0.0035    0.0000    0.0000    0.0000   -0.0122   -0.0000   -0.0000   -0.0093
      111 MO     8f1+       0.0012    0.0000   -0.0015   -0.0000   -0.0000   -0.0000    0.0073    0.0000    0.0000    0.0092
      112 MO     9f1+      -0.0002    0.0000   -0.0002   -0.0000   -0.0000   -0.0000    0.0002    0.0000    0.0000    0.0008
      113 MO     4f2+       0.0655    0.0000   -0.0116    0.0000    0.0000    0.0000   -0.0888   -0.0000   -0.0000   -0.0272
      114 MO     5f2+      -0.0227    0.0000   -0.0014    0.0000   -0.0000   -0.0000    0.0339    0.0000    0.0000    0.0010
      115 MO     6f2+      -0.0113   -0.0000    0.0014    0.0000   -0.0000   -0.0000    0.0221    0.0000   -0.0000   -0.0072
      116 MO     7f2+      -0.0068   -0.0000    0.0013    0.0000   -0.0000   -0.0000    0.0169    0.0000   -0.0000   -0.0097
      117 MO     8f2+       0.0020    0.0000   -0.0001   -0.0000    0.0000    0.0000   -0.0074   -0.0000    0.0000    0.0109
      118 MO     9f2+      -0.0007   -0.0000    0.0004   -0.0000   -0.0000   -0.0000    0.0007   -0.0000    0.0000    0.0012
      119 MO     4f3+      -0.0000    0.0000   -0.0000    0.0112    0.0393   -0.0000    0.0000    0.0095   -0.0000    0.0000
      120 MO     5f3+       0.0000   -0.0000    0.0000   -0.0108   -0.0121    0.0000   -0.0000   -0.0112    0.0000    0.0000
      121 MO     6f3+       0.0000   -0.0000    0.0000   -0.0037   -0.0071    0.0000   -0.0000   -0.0026    0.0000    0.0000
      122 MO     7f3+       0.0000   -0.0000    0.0000   -0.0020   -0.0052    0.0000   -0.0000   -0.0012    0.0000    0.0000
      123 MO     8f3+      -0.0000    0.0000   -0.0000    0.0011    0.0020   -0.0000    0.0000    0.0005   -0.0000   -0.0000
      124 MO     9f3+      -0.0000    0.0000   -0.0000    0.0002   -0.0005    0.0000   -0.0000    0.0003   -0.0000   -0.0000
      125 MO     5g4-      -0.0000   -0.0009   -0.0000   -0.0000    0.0000    0.0143    0.0000   -0.0000    0.0012   -0.0000
      126 MO     6g4-      -0.0000   -0.0057   -0.0000   -0.0000    0.0000    0.0033    0.0000    0.0000    0.0001   -0.0000
      127 MO     7g4-       0.0000   -0.0021   -0.0000   -0.0000    0.0000    0.0004    0.0000    0.0000   -0.0001    0.0000
      128 MO     8g4-       0.0000   -0.0003   -0.0000   -0.0000    0.0000    0.0010    0.0000   -0.0000   -0.0001    0.0000
      129 MO     5g3-      -0.0000    0.0000    0.0000    0.0000    0.0000   -0.0000    0.0000   -0.0000   -0.0000    0.0000
      130 MO     6g3-      -0.0000    0.0000    0.0000    0.0000   -0.0000   -0.0000    0.0000    0.0000   -0.0000    0.0000
      131 MO     7g3-      -0.0000    0.0000    0.0000    0.0000    0.0000   -0.0000    0.0000   -0.0000    0.0000   -0.0000
      132 MO     8g3-      -0.0000   -0.0000   -0.0000    0.0000   -0.0000   -0.0000    0.0000    0.0000    0.0000   -0.0000
      133 MO     5g2-      -0.0000   -0.0012   -0.0000    0.0000   -0.0000   -0.0106   -0.0000   -0.0000    0.0012   -0.0000
      134 MO     6g2-      -0.0000   -0.0008   -0.0000   -0.0000   -0.0000   -0.0032   -0.0000   -0.0000    0.0001   -0.0000
      135 MO     7g2-      -0.0000   -0.0006   -0.0000   -0.0000   -0.0000   -0.0007   -0.0000    0.0000   -0.0004    0.0000
      136 MO     8g2-      -0.0000   -0.0003   -0.0000   -0.0000   -0.0000   -0.0009   -0.0000    0.0000   -0.0002    0.0000
      137 MO     5g1-       0.0000    0.0008    0.0000    0.0000    0.0000    0.0016    0.0000   -0.0000   -0.0060    0.0000
      138 MO     6g1-       0.0000   -0.0068   -0.0000   -0.0000   -0.0000   -0.0040   -0.0000    0.0000   -0.0012    0.0000
      139 MO     7g1-       0.0000   -0.0029   -0.0000   -0.0000   -0.0000   -0.0024   -0.0000   -0.0000    0.0004   -0.0000
      140 MO     8g1-       0.0000   -0.0004   -0.0000   -0.0000    0.0000    0.0001    0.0000    0.0000    0.0000   -0.0000
      141 MO     5g0       -0.0000    0.0000    0.0000   -0.0080   -0.0263    0.0000   -0.0000    0.0009    0.0000    0.0000
      142 MO     6g0       -0.0000    0.0000   -0.0000   -0.0119   -0.0064    0.0000   -0.0000    0.0015    0.0000    0.0000
      143 MO     7g0       -0.0000    0.0000    0.0000   -0.0041   -0.0019    0.0000   -0.0000    0.0004   -0.0000   -0.0000
      144 MO     8g0       -0.0000   -0.0000    0.0000   -0.0010   -0.0024    0.0000   -0.0000    0.0000   -0.0000   -0.0000
      145 MO     5g1+      -0.0144   -0.0000    0.0008    0.0000   -0.0000   -0.0000    0.0016    0.0000    0.0000    0.0060
      146 MO     6g1+      -0.0056    0.0000   -0.0068    0.0000    0.0000    0.0000   -0.0040    0.0000    0.0000    0.0012
[...]
         2   18       1.31937965E-04  1.25141607E+05  4.45645910E-09  1.16589800E-03  1.25141608E+05
         3    7       2.79268296E-02  7.51428840E+05  9.43400044E-03  2.55024500E+05  1.00645335E+06
         3    9       2.08504802E-02  9.43402006E-03  7.51429610E+05  1.77877606E-04  7.51429620E+05
         3   11       8.57654051E-03  2.74364828E-03  5.72468242E+05  2.26924113E-15  5.72468245E+05
         3   13       1.14119439E-03  1.36763581E-03  2.85383999E+05  1.71286890E-15  2.85384000E+05
         3   15       2.98153035E-03  7.47233656E+05  3.56177448E-03  8.35868939E+03  7.55592349E+05
         3   17       2.94851601E-03  3.56178959E-03  7.47226037E+05  4.02770058E-05  7.47226040E+05
         4    8       2.79268296E-02  7.51428840E+05  9.43400044E-03  2.55024500E+05  1.00645335E+06
         4   10       2.08504802E-02  9.43402006E-03  7.51429610E+05  1.77877606E-04  7.51429620E+05
         4   12       8.57654051E-03  2.74364828E-03  5.72468242E+05  2.26924113E-15  5.72468245E+05
         4   14       1.14119439E-03  1.36763581E-03  2.85383999E+05  1.71286890E-15  2.85384000E+05
         4   16       2.98153035E-03  7.47233656E+05  3.56177448E-03  8.35868939E+03  7.55592349E+05
         4   18       2.94851601E-03  3.56178959E-03  7.47226037E+05  4.02770058E-05  7.47226040E+05
         5    7       2.08504684E-02  9.43400099E-03  7.51428264E+05  1.77877464E-04  7.51428273E+05
         5    9       2.79268500E-02  7.51429667E+05  9.43400582E-03  2.55024257E+05  1.00645393E+06
         5   11       8.57653812E-03  5.72467793E+05  2.74363972E-03  6.54561887E-07  5.72467796E+05
         5   13       1.14111385E-03  2.85363785E+05  1.36775872E-03  3.70263026E-06  2.85363786E+05
         5   15       2.94854079E-03  3.56173859E-03  7.47231794E+05  4.02779236E-05  7.47231798E+05
         5   17       2.98156139E-03  7.47242006E+05  3.56171008E-03  8.35834023E+03  7.55600350E+05
         6    8       2.08504684E-02  9.43400099E-03  7.51428264E+05  1.77877464E-04  7.51428273E+05
         6   10       2.79268500E-02  7.51429667E+05  9.43400582E-03  2.55024257E+05  1.00645393E+06
         6   12       8.57653812E-03  5.72467793E+05  2.74363972E-03  6.54561887E-07  5.72467796E+05
         6   14       1.14111385E-03  2.85363785E+05  1.36775872E-03  3.70263026E-06  2.85363786E+05
         6   16       2.94854079E-03  3.56173859E-03  7.47231794E+05  4.02779236E-05  7.47231798E+05
         6   18       2.98156139E-03  7.47242006E+05  3.56171008E-03  8.35834023E+03  7.55600350E+05
         7   11       1.24638302E-03  1.07281228E-05  5.85131080E+03  1.02169858E-18  5.85131081E+03
         7   13       1.85479753E-02  3.27284138E-03  1.78517059E+06  3.33708962E-13  1.78517059E+06
         7   15       1.05344217E-01  2.58182570E+06  4.69213124E-03  7.77649229E+06  1.03583180E+07
         7   17       2.62566799E-02  4.69216643E-03  2.58177656E+06  1.43837701E-02  2.58177658E+06
         8   12       1.24638302E-03  1.07281228E-05  5.85131080E+03  1.02169858E-18  5.85131081E+03
         8   14       1.85479753E-02  3.27284138E-03  1.78517059E+06  3.33708962E-13  1.78517059E+06
         8   16       1.05344217E-01  2.58182570E+06  4.69213124E-03  7.77649229E+06  1.03583180E+07
         8   18       2.62566799E-02  4.69216643E-03  2.58177656E+06  1.43837701E-02  2.58177658E+06
         9   11       1.24637677E-03  5.85127274E+03  1.07281605E-05  3.78474124E-09  5.85127275E+03
         9   13       1.85470673E-02  1.78508261E+06  3.27308165E-03  8.78405488E-04  1.78508261E+06
         9   15       2.62571985E-02  4.69203951E-03  2.58182489E+06  1.43837478E-02  2.58182491E+06
         9   17       1.05344743E-01  2.58187420E+06  4.69199042E-03  7.77649944E+06  1.03583736E+07
        10   12       1.24637677E-03  5.85127274E+03  1.07281605E-05  3.78474124E-09  5.85127275E+03
        10   14       1.85470673E-02  1.78508261E+06  3.27308165E-03  8.78405488E-04  1.78508261E+06
        10   16       2.62571985E-02  4.69203951E-03  2.58182489E+06  1.43837478E-02  2.58182491E+06
        10   18       1.05344743E-01  2.58187420E+06  4.69199042E-03  7.77649944E+06  1.03583736E+07
        11   13       1.16022126E-01  4.40932133E-04  2.32250007E-13  6.77890405E+06  6.77890406E+06
        11   15       6.69687956E-02  1.42992711E-07  4.02164139E+06  4.48617892E-13  4.02164139E+06
        11   17       6.69688577E-02  4.02164874E+06  1.42962499E-07  8.08772140E-04  4.02164874E+06
        12   14       1.16022126E-01  4.40932133E-04  2.32250007E-13  6.77890405E+06  6.77890406E+06
        12   16       6.69687956E-02  1.42992711E-07  4.02164139E+06  4.48617892E-13  4.02164139E+06
        12   18       6.69688577E-02  4.02164874E+06  1.42962499E-07  8.08772140E-04  4.02164874E+06
        13   15       3.67642579E-05  1.45617822E-14  4.09601457E-01  2.61944882E-19  4.09601457E-01
        13   17       3.67655833E-05  4.09643333E-01  1.45688249E-14  5.04867970E-10  4.09643334E-01
        14   16       3.67642579E-05  1.45617822E-14  4.09601457E-01  2.61944882E-19  4.09601457E-01
        14   18       3.67655833E-05  4.09643333E-01  1.45688249E-14  5.04867970E-10  4.09643334E-01
     -----------------------------------------------------------------------------------------------
--

++ Velocity transition strengths (SO states):
   ------------------------------------------
    for osc. strength at least    1.0000000000000001E-005

      From   To        Osc. strength     Einstein coefficients Ax, Ay, Az (sec-1)    Total A (sec-1)
     -----------------------------------------------------------------------------------------------
         1    3       5.28771999E-03  5.60978353E-03  1.17050223E+06  1.19834166E-14  1.17050223E+06
         1    5       5.28769022E-03  1.17049596E+06  5.60978978E-03  2.86281250E-08  1.17049597E+06
         1    7       3.55647538E-01  2.84325215E-01  1.55075592E+08  2.37990706E-14  1.55075593E+08
         1    9       3.55647515E-01  1.55075606E+08  2.84325268E-01  3.56091385E-08  1.55075607E+08
         1   11       3.28151393E-01  4.49550724E-08  5.28187031E-14  1.74320731E+08  1.74320731E+08
         1   13       1.28727691E-02  3.55719190E-06  1.21788207E-14  1.21261605E+07  1.21261605E+07
         1   15       7.47502788E-05  2.49918008E-09  7.08999907E+04  6.17577709E-13  7.08999907E+04
         1   17       7.47520347E-05  7.09016712E+04  2.52280032E-09  1.04758060E-03  7.09016723E+04
         2    4       5.28771999E-03  5.60978353E-03  1.17050223E+06  1.19834166E-14  1.17050223E+06
         2    6       5.28769022E-03  1.17049596E+06  5.60978978E-03  2.86281250E-08  1.17049597E+06
         2    8       3.55647538E-01  2.84325215E-01  1.55075592E+08  2.37990706E-14  1.55075593E+08
         2   10       3.55647515E-01  1.55075606E+08  2.84325268E-01  3.56091385E-08  1.55075607E+08
         2   12       3.28151393E-01  4.49550724E-08  5.28187031E-14  1.74320731E+08  1.74320731E+08
         2   14       1.28727691E-02  3.55719190E-06  1.21788207E-14  1.21261605E+07  1.21261605E+07
         2   16       7.47502788E-05  2.49918008E-09  7.08999907E+04  6.17577709E-13  7.08999907E+04
         2   18       7.47520347E-05  7.09016712E+04  2.52280032E-09  1.04758060E-03  7.09016723E+04
         3    7       7.30095119E-03  1.94486034E+05  2.44172032E-03  6.86334231E+04  2.63119460E+05
         3    9       5.39654023E-03  2.44173125E-03  1.94486370E+05  4.78712857E-05  1.94486373E+05
         3   11       3.01404790E-03  9.64201254E-04  2.01182831E+05  8.29815424E-15  2.01182832E+05
         3   13       1.34459701E-03  1.61141492E-03  3.36251045E+05  2.34754777E-14  3.36251047E+05
         3   15       3.11042430E-03  7.37424518E+05  3.51501068E-03  5.08354310E+04  7.88259952E+05
         3   17       2.90979512E-03  3.51503904E-03  7.37415779E+05  2.44961229E-04  7.37415783E+05
         4    8       7.30095119E-03  1.94486034E+05  2.44172032E-03  6.86334231E+04  2.63119460E+05
         4   10       5.39654023E-03  2.44173125E-03  1.94486370E+05  4.78712857E-05  1.94486373E+05
         4   12       3.01404790E-03  9.64201254E-04  2.01182831E+05  8.29815424E-15  2.01182832E+05
         4   14       1.34459701E-03  1.61141492E-03  3.36251045E+05  2.34754777E-14  3.36251047E+05
         4   16       3.11042430E-03  7.37424518E+05  3.51501068E-03  5.08354310E+04  7.88259952E+05
         4   18       2.90979512E-03  3.51503904E-03  7.37415779E+05  2.44961229E-04  7.37415783E+05
         5    7       5.39652887E-03  2.44172386E-03  1.94485722E+05  4.78717036E-05  1.94485725E+05
         5    9       7.30096232E-03  1.94486444E+05  2.44172387E-03  6.86333754E+04  2.63119822E+05
         5   11       3.01404802E-03  2.01182737E+05  9.64201943E-04  4.09942347E-07  2.01182738E+05
         5   13       1.34450954E-03  3.36229084E+05  1.61154988E-03  1.06873242E-05  3.36229085E+05
         5   15       2.90982391E-03  3.51497780E-03  7.37422560E+05  2.44963404E-04  7.37422564E+05
         5   17       3.11045557E-03  7.37433481E+05  3.51495179E-03  5.08345335E+04  7.88268018E+05
         6    8       5.39652887E-03  2.44172386E-03  1.94485722E+05  4.78717036E-05  1.94485725E+05
         6   10       7.30096232E-03  1.94486444E+05  2.44172387E-03  6.86333754E+04  2.63119822E+05
         6   12       3.01404802E-03  2.01182737E+05  9.64201943E-04  4.09942347E-07  2.01182738E+05
         6   14       1.34450954E-03  3.36229084E+05  1.61154988E-03  1.06873242E-05  3.36229085E+05
         6   16       2.90982391E-03  3.51497780E-03  7.37422560E+05  2.44963404E-04  7.37422564E+05
         6   18       3.11045557E-03  7.37433481E+05  3.51495179E-03  5.08345335E+04  7.88268018E+05
         7   11       2.24211989E-03  1.92989590E-05  1.05259665E+04  6.08934636E-17  1.05259665E+04
         7   13       2.45876915E-02  4.33858740E-03  2.36647805E+06  4.17319062E-13  2.36647805E+06
         7   15       1.29238972E-01  3.14750135E+06  5.72017611E-03  9.56039160E+06  1.27078930E+07
         7   17       3.20093602E-02  5.72021765E-03  3.14743919E+06  1.76833478E-02  3.14743921E+06
         8   12       2.24211989E-03  1.92989590E-05  1.05259665E+04  6.08934636E-17  1.05259665E+04
         8   14       2.45876915E-02  4.33858740E-03  2.36647805E+06  4.17319062E-13  2.36647805E+06
         8   16       1.29238972E-01  3.14750135E+06  5.72017611E-03  9.56039160E+06  1.27078930E+07
         8   18       3.20093602E-02  5.72021765E-03  3.14743919E+06  1.76833478E-02  3.14743921E+06
         9   11       2.24211440E-03  1.05259250E+04  1.92988140E-05  1.79769531E-08  1.05259250E+04
         9   13       2.45865362E-02  2.36636608E+06  4.33890265E-03  1.08352653E-03  2.36636608E+06
         9   15       3.20100159E-02  5.72005108E-03  3.14750042E+06  1.76833268E-02  3.14750044E+06
         9   17       1.29239626E-01  3.14756214E+06  5.71999904E-03  9.56039991E+06  1.27079621E+07
        10   12       2.24211440E-03  1.05259250E+04  1.92988140E-05  1.79769531E-08  1.05259250E+04
        10   14       2.45865362E-02  2.36636608E+06  4.33890265E-03  1.08352653E-03  2.36636608E+06
        10   16       3.20100159E-02  5.72005108E-03  3.14750042E+06  1.76833268E-02  3.14750044E+06
        10   18       1.29239626E-01  3.14756214E+06  5.71999904E-03  9.56039991E+06  1.27079621E+07
        11   13       1.53296999E-01  5.80978900E-04  3.10179092E-13  8.95681969E+06  8.95681969E+06
        11   15       8.74336623E-02  1.86692931E-07  5.25062537E+06  5.32115992E-13  5.25062537E+06
        11   17       8.74337268E-02  5.25063398E+06  1.86644542E-07  1.06441266E-03  5.25063398E+06
        12   14       1.53296999E-01  5.80978900E-04  3.10179092E-13  8.95681969E+06  8.95681969E+06
        12   16       8.74336623E-02  1.86692931E-07  5.25062537E+06  5.32115992E-13  5.25062537E+06
        12   18       8.74337268E-02  5.25063398E+06  1.86644542E-07  1.06441266E-03  5.25063398E+06
        13   15       3.05951436E-03  1.20556863E-12  3.40870717E+01  3.52585497E-18  3.40870717E+01
        13   17       3.05943802E-03  3.40884772E+01  1.21312035E-12  1.42390854E-09  3.40884772E+01
        14   16       3.05951436E-03  1.20556863E-12  3.40870717E+01  3.52585497E-18  3.40870717E+01
        14   18       3.05943802E-03  3.40884772E+01  1.21312035E-12  1.42390854E-09  3.40884772E+01
     -----------------------------------------------------------------------------------------------
--

++ Length and velocity gauge comparison (SO states):

 --------------------------------------------------
 A comparison between the dipole oscillator strengths in 
 length and velocity gauge will be performed

 All dipole oscillator differences above the tolerance of   0.10000000000000001       will be printed 

 Due to basis set deficiency these oscillator may be problematic 

 The tolerance is defined as ABS(1-O_l/O_v) 
 O_l : dipole oscillator strength in length gauge
 O_p : dipole oscillator strength in velocity gauge
 --------------------------------------------------

  Problematic transitions have been found

      From   To       Difference (%) Osc. st. (len.) Osc. st. (vel.)
     ---------------------------------------------------------------
         1   13            10.693556  1.42493258E-02  1.28727691E-02
         1   15            76.501743  1.31935545E-04  7.47502788E-05
         1   17            76.500834  1.31937965E-04  7.47520347E-05
         2   14            10.693556  1.42493258E-02  1.28727691E-02
         2   16            76.501743  1.31935545E-04  7.47502788E-05
         2   18            76.500834  1.31937965E-04  7.47520347E-05
         3    7           282.509469  2.79268296E-02  7.30095119E-03
         3    9           286.367549  2.08504802E-02  5.39654023E-03
         3   11           184.552230  8.57654051E-03  3.01404790E-03
         3   13            15.127404  1.14119439E-03  1.34459701E-03
         4    8           282.509469  2.79268296E-02  7.30095119E-03
         4   10           286.367549  2.08504802E-02  5.39654023E-03
         4   12           184.552230  8.57654051E-03  3.01404790E-03
         4   14            15.127404  1.14119439E-03  1.34459701E-03
         5    7           286.368144  2.08504684E-02  5.39652887E-03
         5    9           282.509164  2.79268500E-02  7.30096232E-03
         5   11           184.552140  8.57653812E-03  3.01404802E-03
         5   13            15.127872  1.14111385E-03  1.34450954E-03
         6    8           286.368144  2.08504684E-02  5.39652887E-03
         6   10           282.509164  2.79268500E-02  7.30096232E-03
         6   12           184.552140  8.57653812E-03  3.01404802E-03
         6   14            15.127872  1.14111385E-03  1.34450954E-03
         7   11            44.410510  1.24638302E-03  2.24211989E-03
         7   13            24.563982  1.85479753E-02  2.45876915E-02
         7   15            18.488816  1.05344217E-01  1.29238972E-01
         7   17            17.971869  2.62566799E-02  3.20093602E-02
         8   12            44.410510  1.24638302E-03  2.24211989E-03
         8   14            24.563982  1.85479753E-02  2.45876915E-02
         8   16            18.488816  1.05344217E-01  1.29238972E-01
         8   18            17.971869  2.62566799E-02  3.20093602E-02
         9   11            44.410652  1.24637677E-03  2.24211440E-03
         9   13            24.564131  1.85470673E-02  2.45865362E-02
         9   15            17.971929  2.62571985E-02  3.20100159E-02
         9   17            18.488821  1.05344743E-01  1.29239626E-01
        10   12            44.410652  1.24637677E-03  2.24211440E-03
        10   14            24.564131  1.85470673E-02  2.45865362E-02
        10   16            17.971929  2.62571985E-02  3.20100159E-02
        10   18            18.488821  1.05344743E-01  1.29239626E-01
        11   13            24.315462  1.16022126E-01  1.53296999E-01
        11   15            23.406164  6.69687956E-02  8.74336623E-02
        11   17            23.406150  6.69688577E-02  8.74337268E-02
        12   14            24.315462  1.16022126E-01  1.53296999E-01
        12   16            23.406164  6.69687956E-02  8.74336623E-02
        12   18            23.406150  6.69688577E-02  8.74337268E-02
        13   15            98.798363  3.67642579E-05  3.05951436E-03
        13   17            98.798290  3.67655833E-05  3.05943802E-03
        14   16            98.798363  3.67642579E-05  3.05951436E-03
        14   18            98.798290  3.67655833E-05  3.05943802E-03
     ---------------------------------------------------------------

 Number of problematic transitions =                    48

--

 Electric-dipole - electric-octupole not included
++ I/O STATISTICS
 
  I. General I/O information
  - - - - - - - - - - - - - - - - - - - - - - - - - - - - - - - - - - - - - - - - - - -
  Unit  Name          Flsize      Write/Read            MBytes           Write/Read
                      (MBytes)       Calls              In/Out           Time, sec.
  - - - - - - - - - - - - - - - - - - - - - - - - - - - - - - - - - - - - - - - - - - -
   1  SCRATCH           0.00 .       9/      45 .      0.0/      0.0 .       0/       0
   2  ANNI              0.00 .       0/       0 .      0.0/      0.0 .       0/       0
   3  RUNFILE          14.89 .     322/   10517 .      2.3/     76.3 .       0/       0
   4  ONEINT            5.68 .       0/   24849 .      0.0/   3743.6 .       0/       0
   5  JOBIPH            6.59 .       0/      92 .      0.0/      0.8 .       0/       0
   6  ORDINT          529.03 .       1/    4233 .      0.0/   1058.0 .       0/       0
  - - - - - - - - - - - - - - - - - - - - - - - - - - - - - - - - - - - - - - - - - - -
   *  TOTAL           556.21 .     332/   39736 .      2.3/   4878.7 .       0/       0
  - - - - - - - - - - - - - - - - - - - - - - - - - - - - - - - - - - - - - - - - - - -
 
  II. I/O Access Patterns
  - - - - - - - - - - - - - - - - - - - -
  Unit  Name               % of random
                         Write/Read calls
  - - - - - - - - - - - - - - - - - - - -
   1  SCRATCH             88.9/ 100.0
   2  ANNI                 0.0/   0.0
   3  RUNFILE             28.6/  10.8
   4  ONEINT               0.0/  15.5
   5  JOBIPH               0.0/  76.1
   6  ORDINT             100.0/   0.0
  - - - - - - - - - - - - - - - - - - - -
--
--- Stop Module: rassi at Fri Jan 10 02:29:59 2025 /rc=_RC_ALL_IS_WELL_ ---
*** files: xmldump
    saved to directory /home4/s4752295/Internship/Initial_simulations/Point_charge_model/1_electron/active_space_9_non_rel/Mo/varying_bond_length
--- Module rassi spent 3 seconds ---

.##################.
.# Happy landing! #.
.##################.

    Timing: Wall=65.33 User=48.31 System=10.63

###############################################################################
Hbrk Cluster
Job 14556693 for user s4752295
Finished at: Fri Jan 10 02:29:59 CET 2025

Job details:
============

Job ID                         : 14556693
Name                           : Mo_no_c_light
User                           : s4752295
Partition                      : regularmedium
Nodes                          : node101
Number of Nodes                : 1
Cores                          : 1
Number of Tasks                : 1
State                          : RUNNING  
Submit                         : 2025-01-10T02:28:49
Start                          : 2025-01-10T02:28:50
End                            : --
Reserved walltime              : 15:00:00
Used walltime                  : 00:01:09
Used CPU time                  : -- 
% User (Computation)           : --
% System (I/O)                 : --
Total memory reserved          : 25000M
Maximum memory used            : --

Acknowledgements:
=================

Please see this page for information about acknowledging Hbrk in your publications:

https://wiki.hpc.rug.nl/habrok/introduction/scientific_output

################################################################################
