   This run of MOLCAS is using the pymolcas driver

                             OPE
                             OPE          NMOL  CASOP  ENMOLC A   SO
                 OPE        NMOLC        AS  OP EN  MO LC     AS  OP
                OPENM       OL CA        SO  PE NM  OL CA     SOP EN
                OP EN      MO   LC       AS  OP ENMOL  CASO   PENMOL
                OP  EN     MO   LC       AS  OP EN     MO     LC ASO
               OP   E  NMOL  C  AS       OP  EN MO     LC     AS  OP
               OP  E   NMO   LC AS        OPEN  MO     LCASOP EN   M
               O  PEN   MO  LCA  SO
            OPE   NMO   L   CAS    OP
        OPENMOL  CASOP     ENMOL   CASOPE
     OPENMOLCA   SOPENMOLCASOPEN   MOLCASOPE
    OPENMOLCAS   OP           EN   MOL    CAS
    OPENMOLCAS       OP  ENM        O     LCA
    OPENMOLCAS    OPEN  MOLCASO     P  E  NMO
    OPENMOLCAS     OP               E  N  MOL
    OPENMOLCA   SO           PENM   O  L  CAS    OPEN    MO    LCAS
    OPENMOLCA   SOP           ENM   O  L  CAS   OP  EN  MOLC  AS   O
    OPENMOLCA   SOPE           NM      O  LCA   S      OP  EN MO
    OPENMOLC                AS         O  PEN   M      OL  CA  SOPE
    OPENMO        LCASOPE  NMOL        C  ASO   P      ENMOLC     AS
    OPE     NMO      LCA  SO     P     E   NM   OL  CA SO  PE N   MO
          OPENMOLCA            SOPE   NMO        LCAS  O    P  ENMO
     OPENMOLCASOPENMOLCASOPENMOLCASOPENMOLCA
        OPENMOLCASOPENMOLCASOPENMOLCASOPE
            OPENMOLCASOPENMOLCASOPENM
               OPENMOLCASOPENMOLCA        version: o91e1abe7de707b ?
                   OPENMOLCASO
                       OPE                tag:

 OpenMolcas is free software; you can redistribute it and/or modify it
 under the terms of the GNU Lesser General Public License version 2.1.
 OpenMolcas is distributed in the hope that it will be useful, but it
 is provided "as is" and without any express or implied warranties.
 For more details see the full text of the license in the file
 LICENSE or in <http://www.gnu.org/licenses/>.

                 Copyright (C) The OpenMolcas Authors
           For the author list and the recommended citation,
                   consult the file CONTRIBUTORS.md

           *************************************************
           * pymolcas version py2.10                       *
           *   build 3068ae8b88c9345ec6cfef6fef7f1169      *
           *   (after the EMIL interpreter by V. Veryazov) *
           *************************************************

configuration info
------------------
Host name: login1 (Linux)
C Compiler ID: GNU
C flags: -std=gnu99
Fortran Compiler ID: GNU
Fortran flags: -fno-aggressive-loop-optimizations -cpp -fdefault-integer-8 -fmax-stack-var-size=1048576
Definitions: _MOLCAS_;_I8_;_LINUX_;_MKL_
Parallel: OFF (GA=OFF)


   ----------------------------------------------------------------------------------------------------------------------------------------------
  |
  |           Project: molybdenum_so_cf
  |    Submitted from: /home4/s4752295/Internship/Initial_simulations/Point_charge_model/1_electron/active_space_9_non_rel/Mo/varying_bond_length
  |      Scratch area: /tmp/molybdenum_so_cf
  |   Save outputs to: /home4/s4752295/Internship/Initial_simulations/Point_charge_model/1_electron/active_space_9_non_rel/Mo/varying_bond_length
  |            Molcas: /home4/s4752295/Internship/Molcas/recomp_try/OpenMolcas-master/build
  |
  | Scratch area is empty
  |
  |    MOLCAS_DRIVER = /home4/s4752295/Internship/Molcas/bin/pymolcas
  |    MOLCAS_NPROCS = 1
  |    MOLCAS_SOURCE = /home4/s4752295/Internship/Molcas/recomp_try/OpenMolcas-master
  | MOLCAS_STRUCTURE = 0
  |
   ----------------------------------------------------------------------------------------------------------------------------------------------

++ ---------   Input file   ---------

&SEWARD
AMFi

CLIG
$R

Basis Set
Mo.ANO-rcc.Roos.21s18p13d6f4g2h.10s9p9d6f4g2h.
Spherical d
Mo            0.0       0.0     0.0
End of Basis

Xfield

4
0.000000,  0.0000,  0.210       -1.0
0.181865,  0.0000, -0.105       -1.0
-0.090933,  0.1575, -0.105      -1.0
-0.090933, -0.1575, -0.105      -1.0

End of input

&SCF
Occupied
18
Iterations
   50  100
End of Input

&RASSCF
LumOrb
Symmetry
1
Spin
2
Nactel
1 0 0
CIRoot
9 9 1
inactive
18
ras2
9
End of Input

>>> COPY molybdenum_so_cf.JobIph $SLURM_SUBMIT_DIR/molybdenum_so_cf.doublet.JobIph

>>> COPY $SLURM_SUBMIT_DIR/molybdenum_so_cf.doublet.JobIph ./JOB002

&RASSI
NROFJobIph
1 All
SpinOrbit
End of Input

EOF

-- ----------------------------------

--- Start Module: seward at Thu Jan  9 21:02:51 2025 ---

()()()()()()()()()()()()()()()()()()()()()()()()()()()()()()()()()()()()()()()()()()()()()()()()()()

                                              &SEWARD

                                   only a single process is used
                       available to each process: 4.1 GB of memory, 1 thread?
                                            pid: 1583143
()()()()()()()()()()()()()()()()()()()()()()()()()()()()()()()()()()()()()()()()()()()()()()()()()()

 The speed of LIGHT in this CALCULATION =   137.03599917700001     
               SEWARD will generate:
                  Multipole Moment integrals up to order  2
                  Kinetic Energy integrals
                  Nuclear Attraction integrals (point charge)
                  One-Electron Hamiltonian integrals
                  Velocity integrals
                  Relativistic Douglas-Kroll-Hess integrals:
                    - Parametrization         : EXP
                    - DKH order of Hamiltonian: 2
                    - DKH order of Properties : 0
                         - multipole moment operators
                         - electric potential operators
                         - contact operators
                  External field from     4 point(s) added to the one-electron Hamiltonian
                  Orbital angular momentum around ( 0.0000  0.0000  0.0000 )
                  Velocity quadrupole around ( 0.0000  0.0000  0.0000 )
                  Atomic mean-field integrals
                  Two-Electron Repulsion integrals

                   Integrals are discarded if absolute value <: 0.10E-13
                   Integral cutoff threshold is set to       <: 0.10E-15

++    Symmetry information:
      ---------------------

                    Character Table for C1 

                             E  
                    a        1  x, y, xy, Rz, z, xz, Ry, yz, Rx, I
--


++    Basis set information:
      ----------------------


      Basis set label: MO.ANO-RCC.ROOS.21S18P13D6F4G2H.10S9P9D6F4G2H......

      Electronic valence basis set:
      ------------------
      Associated Effective Charge  42.000000 au
      Associated Actual Charge     42.000000 au
      Nuclear Model: Point charge

      Shell  nPrim  nBasis  Cartesian Spherical Contaminant
         s      21      10        X                  
         p      18       9        X                  
         d      13       9                 X         
         f       6       6                 X         
         g       4       4                 X         
         h       2       2                 X         
--


++    Molecular structure info:
      -------------------------

                    ************************************************ 
                    **** Cartesian Coordinates / Bohr, Angstrom **** 
                    ************************************************ 

     Center  Label                x              y              z                     x              y              z
        1      MO               0.000000       0.000000       0.000000              0.000000       0.000000       0.000000
--


++    Operator info:
      --------------


  Net charge from external field:   -4.0000000000000000     
--


            Nuclear Potential Energy              0.00000000 au

                    Nuclear-External Field Potential Energy    -800.00000181 au
                    External Field Potential Energy              17.77167056 au 


            Total Nuclear Potential Energy           -800.00000181 au


      Basis set specifications :
      Symmetry species         a  
      Basis functions          182

 Sorry, Molden does not know how to handle
 functions with angular momentum larger than g
Note: The following floating-point exceptions are signalling: IEEE_UNDERFLOW_FLAG IEEE_DENORMAL
--- Stop Module: seward at Thu Jan  9 21:03:01 2025 /rc=_RC_ALL_IS_WELL_ ---
*** files: molybdenum_so_cf.GssOrb xmldump
    saved to directory /home4/s4752295/Internship/Initial_simulations/Point_charge_model/1_electron/active_space_9_non_rel/Mo/varying_bond_length
--- Module seward spent 10 seconds ---

*** symbolic link created: INPORB -> molybdenum_so_cf.GssOrb
--- Start Module: scf at Thu Jan  9 21:03:01 2025 ---

()()()()()()()()()()()()()()()()()()()()()()()()()()()()()()()()()()()()()()()()()()()()()()()()()()

                                                &SCF

                                   only a single process is used
                       available to each process: 4.1 GB of memory, 1 thread?
                                            pid: 1583164
()()()()()()()()()()()()()()()()()()()()()()()()()()()()()()()()()()()()()()()()()()()()()()()()()()

++    Input section:
      --------------

      Header of the integral files:
      
       Integrals generated by seward 4.2.0  , Thu Jan  9 21:02:52 2025


      Cartesian coordinates in Angstrom:
      -----------------------------------------------------
      No.  Label        X            Y            Z        
      -----------------------------------------------------
       1   MO         0.00000000   0.00000000   0.00000000
      -----------------------------------------------------
      Nuclear repulsion energy = -800.00000181
--

++    Orbital specifications:
      -----------------------

      Symmetry species               1
                                     a
      Frozen orbitals                0
      Occupied orbitals             18
      Secondary orbitals           164
      Deleted orbitals               0
      Total number of orbitals     182
      Number of basis functions    182
--

      Molecular charge                           6.000

++    Optimization specifications:
      ----------------------------

      SCF Algorithm: Conventional
      Minimized density differences are used
      Number of density matrices in core                5
      Maximum number of NDDO SCF iterations            50
      Maximum number of HF SCF iterations             100
      Threshold for SCF energy change            0.10E-08
      Threshold for density matrix               0.10E-03
      Threshold for Fock matrix                  0.15E-03
      Threshold for linear dependence            0.10E-08
      Threshold at which DIIS is turned on       0.15E+00
      Threshold at which QNR/C2DIIS is turned on 0.75E-01
      Threshold for Norm(delta) (QNR/C2DIIS)     0.20E-04
      DIIS extrapolation of the SCF procedure
      All orbitals punched on: SCFORB
--

      Detected guessorb starting orbitals                                             


++ Convergence information
                                   SCF        iterations: Energy and convergence statistics

Iter     Tot. SCF        One-elec.       Two-elec.     Energy      Max Dij or  Max Fij      DNorm      TNorm      AccCon     Time
         Energy          Energy          Energy        Change      Delta Norm                                                in Sec.

 The total and one-electron energies are shifted by a value of      4000. a.u.

   1  -422.832092484 -1028.856539965  1406.024449289   0.00E+00    0.46E+00*   0.27E+01*    0.85E+01   0.55E+03   None         1.
   2  -430.016780114  -811.575885016  1181.559106710  -0.72E+01*   0.16E+00*   0.11E+01*    0.43E+01   0.51E+03   EDIIS        1.
   3  -434.311542194  -932.364724911  1298.053184525  -0.43E+01*   0.12E+00*   0.45E+00*    0.57E+00   0.53E+03   EDIIS        1.
   4  -434.652221349  -887.341774623  1252.689555082  -0.34E+00*   0.36E-01*   0.23E+00*    0.12E+00   0.52E+03   EDIIS        1.
   5  -434.793269424  -910.058993507  1275.265725890  -0.14E+00*   0.22E-01*   0.10E+00*    0.28E-01   0.53E+03   EDIIS        1.
   6  -434.809882375  -900.246917264  1265.437036697  -0.17E-01*   0.81E-02*   0.50E-01*    0.63E-02   0.53E+03   EDIIS        1.
   7  -434.816562362  -905.163821784  1270.347261230  -0.67E-02*   0.15E-03*   0.14E-01*    0.79E-03   0.53E+03   c2DIIS       1.
   8  -434.817722589  -903.804272346  1268.986551565  -0.12E-02*   0.74E-04*   0.90E-04     0.18E-03   0.53E+03   QNRc2DIIS    1.
   9  -434.817722620  -903.796924515  1268.979203702  -0.31E-07*   0.29E-04*   0.40E-04     0.19E-04   0.53E+03   QNRc2DIIS    1.
  10  -434.817722627  -903.799383995  1268.981663177  -0.62E-08*   0.57E-05    0.42E-05     0.19E-03   0.53E+03   QNRc2DIIS    1.
  11  -434.817722627  -903.799490906  1268.981770087  -0.12E-09    0.13E-05    0.62E-06     0.67E-02   0.53E+03   QNRc2DIIS    1.

       Convergence after 11 Macro Iterations
--

 *****************************************************************************************************************************
 *                                                                                                                           *
 *                                             SCF/KS-DFT Program, Final results                                             *
 *                                                                                                                           *
 *                                                                                                                           *
 *                                                                                                                           *
 *                                                       Final Results                                                       *
 *                                                                                                                           *
 *****************************************************************************************************************************

::    Total SCF energy                              -4434.8177226267
      One-electron energy                           -4903.7994909055
      Two-electron energy                            1268.9817700869
      Nuclear repulsion energy                       -800.0000018081
      Kinetic energy (interpolated)                  4248.0456167315
      Virial theorem                                    1.0439665961
      Total spin, S(S+1)                                0.0000000000
      Total spin, S                                     0.0000000000
      Max non-diagonal density matrix element           0.0000010709
      Max non-diagonal Fock matrix element              0.0000001911


      All orbitals with orbital energies smaller than  E(LUMO)+0.5 are printed

++    Molecular orbitals:
      -------------------

      Title: SCF orbitals

      Molecular orbitals for symmetry species 1: a  

          Orbital            1         2         3         4         5         6         7         8         9        10    
          Energy         -731.6675  -99.2274  -87.9361  -87.9361  -87.2007  -16.3088  -12.5036  -12.5036  -12.1896   -5.8969
          Occ. No.          2.0000    2.0000    2.0000    2.0000    2.0000    2.0000    2.0000    2.0000    2.0000    2.0000

        1 MO     1s         1.0000    0.0002   -0.0000    0.0000   -0.0003   -0.0001    0.0000   -0.0000    0.0001   -0.0000
        2 MO     2s        -0.0002    0.9982   -0.0000   -0.0000   -0.0599   -0.0060    0.0000   -0.0000   -0.0005   -0.0000
        3 MO     3s         0.0001    0.0060    0.0000    0.0000   -0.0007    0.9939    0.0000   -0.0000   -0.0679   -0.0000
        4 MO     4s        -0.0000   -0.0012   -0.0000   -0.0000    0.0001    0.0605    0.0000   -0.0000   -0.0134   -0.0000
        5 MO     5s         0.0000    0.0003   -0.0000    0.0000   -0.0000   -0.0123   -0.0000    0.0000    0.0026    0.0000
        6 MO     6s        -0.0000   -0.0003   -0.0000   -0.0000    0.0000    0.0142    0.0000   -0.0000   -0.0030   -0.0000
        7 MO     7s         0.0000    0.0010    0.0000    0.0000   -0.0000   -0.0375   -0.0000    0.0000    0.0076    0.0000
        8 MO     8s        -0.0000   -0.0008    0.0000   -0.0000   -0.0000    0.0268   -0.0000   -0.0000   -0.0052   -0.0000
        9 MO     9s         0.0000    0.0007    0.0000    0.0000    0.0001   -0.0224   -0.0000    0.0000    0.0042    0.0000
       10 MO    10s        -0.0001   -0.0001   -0.0000   -0.0000   -0.0004    0.0161    0.0000   -0.0000   -0.0030   -0.0000
       11 MO     2px       -0.0000    0.0000    0.0000    0.9999   -0.0000   -0.0000    0.0000   -0.0057   -0.0000   -0.0000
       12 MO     3px        0.0000    0.0000    0.0000    0.0052   -0.0000    0.0000   -0.0000    0.9926    0.0000    0.0000
       13 MO     4px       -0.0000   -0.0000   -0.0000   -0.0009    0.0000   -0.0000   -0.0000    0.0709    0.0000   -0.0000
       14 MO     5px        0.0000    0.0000    0.0000    0.0003   -0.0000    0.0000    0.0000   -0.0208   -0.0000    0.0000
       15 MO     6px       -0.0000   -0.0000   -0.0000   -0.0007    0.0000   -0.0000   -0.0000    0.0450    0.0000   -0.0000
       16 MO     7px        0.0000    0.0000    0.0000    0.0006   -0.0000    0.0000    0.0000   -0.0328   -0.0000    0.0000
       17 MO     8px       -0.0000   -0.0000   -0.0000   -0.0006    0.0000    0.0000   -0.0000    0.0297    0.0000   -0.0000
       18 MO     9px        0.0000    0.0000    0.0000    0.0004   -0.0000   -0.0000    0.0000   -0.0205   -0.0000    0.0000
       19 MO    10px       -0.0000   -0.0000    0.0000    0.0008    0.0000    0.0000   -0.0000    0.0109    0.0000   -0.0000
       20 MO     2py        0.0000    0.0000    0.9999   -0.0000   -0.0000    0.0000   -0.0057   -0.0000   -0.0000   -0.0001
       21 MO     3py        0.0000   -0.0000    0.0052   -0.0000    0.0000    0.0000    0.9926    0.0000    0.0000    0.0029
       22 MO     4py        0.0000    0.0000   -0.0009    0.0000   -0.0000   -0.0000    0.0709    0.0000   -0.0000   -0.0003
       23 MO     5py        0.0000    0.0000    0.0003   -0.0000    0.0000    0.0000   -0.0208   -0.0000    0.0000    0.0001
       24 MO     6py       -0.0000    0.0000   -0.0007    0.0000   -0.0000   -0.0000    0.0450    0.0000    0.0000   -0.0003
       25 MO     7py        0.0000   -0.0000    0.0006   -0.0000    0.0000    0.0000   -0.0328   -0.0000   -0.0000    0.0003
       26 MO     8py       -0.0000    0.0000   -0.0006    0.0000   -0.0000   -0.0000    0.0297    0.0000    0.0000   -0.0004
       27 MO     9py        0.0000   -0.0000    0.0004   -0.0000    0.0000    0.0000   -0.0205   -0.0000    0.0000    0.0003
       28 MO    10py       -0.0000    0.0000    0.0008   -0.0000   -0.0000   -0.0000    0.0109    0.0000    0.0000   -0.0005
       29 MO     2pz        0.0002    0.0599    0.0000    0.0000    0.9982    0.0000   -0.0000    0.0000   -0.0040    0.0000
       30 MO     3pz       -0.0001    0.0012    0.0000   -0.0000    0.0038    0.0693    0.0000   -0.0000    0.9907    0.0000
       31 MO     4pz        0.0000   -0.0004    0.0000    0.0000   -0.0003   -0.0006    0.0000   -0.0000    0.0811    0.0000
       32 MO     5pz       -0.0000    0.0002   -0.0000   -0.0000    0.0001    0.0002   -0.0000    0.0000   -0.0237   -0.0000
       33 MO     6pz        0.0000   -0.0004    0.0000    0.0000   -0.0002   -0.0004    0.0000   -0.0000    0.0513    0.0000
       34 MO     7pz       -0.0000    0.0004   -0.0000   -0.0000    0.0001    0.0003   -0.0000    0.0000   -0.0374   -0.0000
       35 MO     8pz        0.0000   -0.0006    0.0000    0.0000    0.0002   -0.0003    0.0000   -0.0000    0.0339    0.0000
       36 MO     9pz       -0.0000    0.0007   -0.0000   -0.0000   -0.0007    0.0001   -0.0000    0.0000   -0.0235   -0.0000
       37 MO    10pz        0.0001   -0.0012    0.0000    0.0000    0.0025    0.0004    0.0000   -0.0000    0.0125    0.0000
       38 MO     3d2-       0.0000    0.0000    0.0049   -0.0000   -0.0000   -0.0000    0.0330    0.0000    0.0000    0.8422
       39 MO     4d2-       0.0000   -0.0000   -0.0011    0.0000    0.0000   -0.0000   -0.0018   -0.0000   -0.0000    0.0921
       40 MO     5d2-      -0.0000    0.0000    0.0013   -0.0000    0.0000    0.0000    0.0020    0.0000   -0.0000   -0.0831
       41 MO     6d2-       0.0000   -0.0000   -0.0012    0.0000   -0.0000   -0.0000   -0.0017   -0.0000    0.0000    0.0578
       42 MO     7d2-      -0.0000    0.0000    0.0013   -0.0000   -0.0000    0.0000    0.0015    0.0000    0.0000   -0.0416
       43 MO     8d2-       0.0000   -0.0000   -0.0018    0.0000    0.0000   -0.0000   -0.0014   -0.0000    0.0000    0.0372
       44 MO     9d2-      -0.0000    0.0000    0.0019   -0.0000    0.0000    0.0000    0.0009    0.0000   -0.0000   -0.0263
       45 MO    10d2-       0.0000   -0.0000   -0.0029    0.0000    0.0000   -0.0000   -0.0008   -0.0000    0.0000    0.0258
       46 MO    11d2-      -0.0000    0.0000    0.0027   -0.0000   -0.0000    0.0000   -0.0010   -0.0000   -0.0000   -0.0058
       47 MO     3d1-       0.0000   -0.0000    0.0080   -0.0000   -0.0000    0.0000    0.0599    0.0000    0.0000   -0.5091
       48 MO     4d1-       0.0000   -0.0000   -0.0017    0.0000    0.0000   -0.0000   -0.0026   -0.0000   -0.0000   -0.0548
       49 MO     5d1-      -0.0000    0.0000    0.0020   -0.0000   -0.0000    0.0000    0.0027    0.0000    0.0000    0.0495
       50 MO     6d1-       0.0000   -0.0000   -0.0019    0.0000    0.0000   -0.0000   -0.0022   -0.0000    0.0000   -0.0343
       51 MO     7d1-      -0.0000    0.0000    0.0020   -0.0000   -0.0000    0.0000    0.0018    0.0000    0.0000    0.0246
       52 MO     8d1-       0.0000   -0.0000   -0.0029    0.0000    0.0000   -0.0000   -0.0014   -0.0000   -0.0000   -0.0218
       53 MO     9d1-      -0.0000    0.0000    0.0031   -0.0000   -0.0000    0.0000    0.0007    0.0000    0.0000    0.0153
       54 MO    10d1-       0.0000    0.0000   -0.0047    0.0000    0.0000   -0.0000   -0.0002   -0.0000   -0.0000   -0.0148
       55 MO    11d1-       0.0000   -0.0000    0.0046   -0.0000   -0.0000    0.0000   -0.0023   -0.0000   -0.0000    0.0031
       56 MO     3d0       -0.0000   -0.0039   -0.0000   -0.0000   -0.0041   -0.0169    0.0000   -0.0000   -0.0212   -0.0000
       57 MO     4d0        0.0000    0.0008    0.0000    0.0000    0.0009    0.0012    0.0000   -0.0000    0.0022   -0.0000
       58 MO     5d0       -0.0000   -0.0010   -0.0000   -0.0000   -0.0011   -0.0012   -0.0000    0.0000   -0.0024    0.0000
       59 MO     6d0        0.0000    0.0009    0.0000    0.0000    0.0010    0.0010    0.0000   -0.0000    0.0022   -0.0000
       60 MO     7d0       -0.0000   -0.0010   -0.0000   -0.0000   -0.0011   -0.0008   -0.0000    0.0000   -0.0020   -0.0000
       61 MO     8d0        0.0000    0.0014    0.0000    0.0000    0.0015    0.0007    0.0000   -0.0000    0.0022   -0.0000
       62 MO     9d0       -0.0000   -0.0015   -0.0000   -0.0000   -0.0016   -0.0003    0.0000    0.0000   -0.0019    0.0000
       63 MO    10d0        0.0000    0.0023    0.0000    0.0000    0.0024   -0.0001    0.0000   -0.0000    0.0022    0.0000
       64 MO    11d0       -0.0000   -0.0022   -0.0000   -0.0000   -0.0019    0.0014    0.0000    0.0000   -0.0001    0.0000
       65 MO     3d1+       0.0000    0.0000    0.0000    0.0080   -0.0000   -0.0000   -0.0000    0.0599    0.0000   -0.0000
       66 MO     4d1+      -0.0000   -0.0000   -0.0000   -0.0017    0.0000    0.0000    0.0000   -0.0026   -0.0000   -0.0000
       67 MO     5d1+       0.0000    0.0000    0.0000    0.0020   -0.0000   -0.0000   -0.0000    0.0027    0.0000    0.0000
       68 MO     6d1+      -0.0000   -0.0000   -0.0000   -0.0019    0.0000    0.0000    0.0000   -0.0022   -0.0000   -0.0000
       69 MO     7d1+       0.0000    0.0000    0.0000    0.0020   -0.0000   -0.0000   -0.0000    0.0018    0.0000    0.0000
       70 MO     8d1+      -0.0000   -0.0000   -0.0000   -0.0029    0.0000    0.0000    0.0000   -0.0014   -0.0000   -0.0000
       71 MO     9d1+       0.0000    0.0000    0.0000    0.0031   -0.0000   -0.0000   -0.0000    0.0007   -0.0000    0.0000
       72 MO    10d1+      -0.0000   -0.0000   -0.0000   -0.0047    0.0000    0.0000    0.0000   -0.0002    0.0000   -0.0000
       73 MO    11d1+       0.0000    0.0000    0.0000    0.0046   -0.0000    0.0000    0.0000   -0.0023   -0.0000    0.0000
       74 MO     3d2+      -0.0000   -0.0000   -0.0000   -0.0049    0.0000    0.0000    0.0000   -0.0330   -0.0000   -0.0000
       75 MO     4d2+       0.0000    0.0000    0.0000    0.0011   -0.0000   -0.0000   -0.0000    0.0018    0.0000   -0.0000
       76 MO     5d2+      -0.0000   -0.0000   -0.0000   -0.0013    0.0000    0.0000    0.0000   -0.0020   -0.0000    0.0000
       77 MO     6d2+       0.0000    0.0000    0.0000    0.0012   -0.0000   -0.0000   -0.0000    0.0017    0.0000   -0.0000
       78 MO     7d2+      -0.0000   -0.0000   -0.0000   -0.0013    0.0000    0.0000    0.0000   -0.0015   -0.0000    0.0000
       79 MO     8d2+       0.0000    0.0000    0.0000    0.0018   -0.0000   -0.0000   -0.0000    0.0014    0.0000   -0.0000
       80 MO     9d2+      -0.0000   -0.0000   -0.0000   -0.0019    0.0000    0.0000    0.0000   -0.0009   -0.0000    0.0000
       81 MO    10d2+       0.0000    0.0000    0.0000    0.0029   -0.0000   -0.0000   -0.0000    0.0008    0.0000   -0.0000
       82 MO    11d2+      -0.0000   -0.0000   -0.0000   -0.0027    0.0000    0.0000   -0.0000    0.0010    0.0000    0.0000
       83 MO     4f3-      -0.0000    0.0000   -0.0000    0.0000    0.0000    0.0000   -0.0000   -0.0000   -0.0000    0.0000
       84 MO     5f3-      -0.0000    0.0000   -0.0000   -0.0000    0.0000    0.0000   -0.0000   -0.0000    0.0000    0.0000
       85 MO     6f3-       0.0000   -0.0000   -0.0000    0.0000   -0.0000   -0.0000    0.0000    0.0000    0.0000   -0.0000
       86 MO     7f3-       0.0000    0.0000   -0.0000    0.0000    0.0000    0.0000   -0.0000   -0.0000   -0.0000    0.0000
       87 MO     8f3-       0.0000   -0.0000   -0.0000    0.0000   -0.0000    0.0000   -0.0000   -0.0000    0.0000    0.0000
       88 MO     9f3-      -0.0000    0.0000    0.0000   -0.0000   -0.0000   -0.0000    0.0000    0.0000   -0.0000   -0.0000
       89 MO     4f2-       0.0000   -0.0000   -0.0000    0.0000    0.0000   -0.0000   -0.0002   -0.0000   -0.0000    0.0025
       90 MO     5f2-       0.0000   -0.0000   -0.0000    0.0000   -0.0000   -0.0000   -0.0002   -0.0000   -0.0000    0.0025
       91 MO     6f2-      -0.0000    0.0000   -0.0000    0.0000    0.0000    0.0000    0.0002    0.0000    0.0000   -0.0020
       92 MO     7f2-       0.0000   -0.0000   -0.0000    0.0000    0.0000   -0.0000   -0.0002   -0.0000   -0.0000    0.0017
       93 MO     8f2-       0.0000   -0.0000   -0.0001    0.0000    0.0000   -0.0000   -0.0003   -0.0000   -0.0000    0.0014
       94 MO     9f2-      -0.0000    0.0000    0.0006   -0.0000   -0.0000    0.0000    0.0022    0.0000    0.0000   -0.0080
       95 MO     4f1-       0.0000    0.0000   -0.0000    0.0000    0.0000    0.0000   -0.0005   -0.0000   -0.0000   -0.0013
       96 MO     5f1-       0.0000    0.0000   -0.0000    0.0000   -0.0000    0.0000   -0.0006   -0.0000    0.0000   -0.0014
       97 MO     6f1-      -0.0000   -0.0000   -0.0000    0.0000   -0.0000   -0.0000    0.0005    0.0000    0.0000    0.0011
       98 MO     7f1-       0.0000    0.0000   -0.0000    0.0000    0.0000    0.0000   -0.0005   -0.0000   -0.0000   -0.0009
       99 MO     8f1-       0.0000   -0.0000   -0.0000    0.0000   -0.0000    0.0000   -0.0004   -0.0000   -0.0000   -0.0007
      100 MO     9f1-       0.0000    0.0000    0.0004   -0.0000    0.0000    0.0000    0.0026    0.0000   -0.0000    0.0039
      101 MO     4f0       -0.0000   -0.0001   -0.0000    0.0000   -0.0000   -0.0009   -0.0000    0.0000   -0.0007    0.0000
      102 MO     5f0        0.0000   -0.0000   -0.0000    0.0000   -0.0000   -0.0010   -0.0000    0.0000   -0.0007    0.0000
      103 MO     6f0       -0.0000   -0.0000   -0.0000   -0.0000   -0.0000    0.0008    0.0000   -0.0000    0.0006   -0.0000
      104 MO     7f0        0.0000   -0.0001    0.0000    0.0000   -0.0000   -0.0010   -0.0000    0.0000   -0.0006    0.0000
      105 MO     8f0       -0.0000   -0.0002    0.0000    0.0000   -0.0001   -0.0010   -0.0000    0.0000   -0.0006    0.0000
      106 MO     9f0        0.0000    0.0015   -0.0000   -0.0000    0.0004    0.0068    0.0000   -0.0000    0.0033   -0.0000
      107 MO     4f1+      -0.0000   -0.0000   -0.0000   -0.0000    0.0000   -0.0000    0.0000   -0.0005   -0.0000   -0.0000
      108 MO     5f1+       0.0000   -0.0000   -0.0000   -0.0000    0.0000   -0.0000    0.0000   -0.0006   -0.0000   -0.0000
      109 MO     6f1+      -0.0000   -0.0000   -0.0000   -0.0000    0.0000    0.0000   -0.0000    0.0005    0.0000    0.0000
      110 MO     7f1+       0.0000   -0.0000   -0.0000   -0.0000    0.0000   -0.0000    0.0000   -0.0005   -0.0000   -0.0000
      111 MO     8f1+      -0.0000   -0.0000   -0.0000   -0.0000    0.0000   -0.0000    0.0000   -0.0004   -0.0000   -0.0000
      112 MO     9f1+       0.0000    0.0000    0.0000    0.0004   -0.0000    0.0000   -0.0000    0.0026    0.0000    0.0000
      113 MO     4f2+       0.0000    0.0000    0.0000    0.0000   -0.0000    0.0000   -0.0000    0.0002    0.0000   -0.0000
      114 MO     5f2+      -0.0000    0.0000    0.0000    0.0000   -0.0000    0.0000   -0.0000    0.0002    0.0000   -0.0000
      115 MO     6f2+       0.0000    0.0000    0.0000    0.0000   -0.0000   -0.0000    0.0000   -0.0002   -0.0000    0.0000
      116 MO     7f2+      -0.0000    0.0000    0.0000    0.0000   -0.0000    0.0000   -0.0000    0.0002    0.0000   -0.0000
      117 MO     8f2+       0.0000    0.0000    0.0000    0.0001   -0.0000    0.0000   -0.0000    0.0003    0.0000   -0.0000
      118 MO     9f2+      -0.0000   -0.0000   -0.0000   -0.0006    0.0000   -0.0000    0.0000   -0.0022   -0.0000    0.0000
      119 MO     4f3+      -0.0000   -0.0000    0.0000    0.0000    0.0000   -0.0006    0.0000    0.0000    0.0003   -0.0000
      120 MO     5f3+       0.0000   -0.0000    0.0000    0.0000    0.0000   -0.0006   -0.0000    0.0000    0.0003   -0.0000
      121 MO     6f3+      -0.0000   -0.0000   -0.0000   -0.0000    0.0000    0.0005    0.0000   -0.0000   -0.0003    0.0000
      122 MO     7f3+       0.0000   -0.0000    0.0000    0.0000    0.0000   -0.0006   -0.0000    0.0000    0.0003   -0.0000
      123 MO     8f3+      -0.0000   -0.0001    0.0000    0.0000    0.0001   -0.0007   -0.0000    0.0000    0.0004   -0.0000
      124 MO     9f3+       0.0000    0.0010   -0.0000   -0.0000   -0.0006    0.0043    0.0000   -0.0000   -0.0025    0.0000
      125 MO     5g4-      -0.0000    0.0000   -0.0000    0.0000    0.0000    0.0000   -0.0002   -0.0000   -0.0000   -0.0000
      126 MO     6g4-       0.0000   -0.0000    0.0000   -0.0000   -0.0000   -0.0000    0.0003    0.0000    0.0000    0.0000
      127 MO     7g4-      -0.0000    0.0000   -0.0000    0.0000    0.0000   -0.0000   -0.0005   -0.0000   -0.0000   -0.0001
      128 MO     8g4-       0.0000   -0.0000    0.0001   -0.0000   -0.0000    0.0000    0.0007    0.0000    0.0000    0.0001
      129 MO     5g3-       0.0000    0.0000    0.0000   -0.0000    0.0000    0.0000    0.0000    0.0000    0.0000   -0.0000
      130 MO     6g3-      -0.0000   -0.0000   -0.0000    0.0000   -0.0000   -0.0000   -0.0000   -0.0000   -0.0000    0.0000
      131 MO     7g3-       0.0000    0.0000    0.0000   -0.0000    0.0000    0.0000    0.0000    0.0000    0.0000   -0.0000
      132 MO     8g3-      -0.0000   -0.0000   -0.0000    0.0000    0.0000   -0.0000   -0.0000   -0.0000   -0.0000    0.0000
      133 MO     5g2-      -0.0000   -0.0000    0.0000   -0.0000    0.0000   -0.0000   -0.0000   -0.0000   -0.0000   -0.0002
      134 MO     6g2-       0.0000    0.0000   -0.0000    0.0000    0.0000    0.0000    0.0000    0.0000    0.0000    0.0002
      135 MO     7g2-      -0.0000   -0.0000    0.0000   -0.0000   -0.0000   -0.0000   -0.0000   -0.0000   -0.0000   -0.0003
      136 MO     8g2-       0.0000    0.0000   -0.0000    0.0000    0.0000    0.0000    0.0000    0.0000    0.0000    0.0004
      137 MO     5g1-       0.0000   -0.0000   -0.0000    0.0000    0.0000    0.0000   -0.0003   -0.0000    0.0000    0.0003
      138 MO     6g1-      -0.0000    0.0000    0.0000   -0.0000   -0.0000    0.0000    0.0004    0.0000   -0.0000   -0.0003
      139 MO     7g1-       0.0000   -0.0000   -0.0000    0.0000    0.0000   -0.0000   -0.0007   -0.0000    0.0000    0.0005
      140 MO     8g1-      -0.0000    0.0000    0.0001   -0.0000   -0.0000    0.0000    0.0009    0.0000   -0.0000   -0.0007
      141 MO     5g0       -0.0000   -0.0000    0.0000   -0.0000   -0.0000   -0.0000   -0.0000    0.0000   -0.0004   -0.0000
      142 MO     6g0        0.0000    0.0000    0.0000    0.0000    0.0000    0.0000    0.0000   -0.0000    0.0005    0.0000
      143 MO     7g0       -0.0000   -0.0000   -0.0000   -0.0000   -0.0001   -0.0001   -0.0000    0.0000   -0.0009   -0.0000
      144 MO     8g0        0.0000    0.0000    0.0000    0.0000    0.0001    0.0001    0.0000   -0.0000    0.0013    0.0000
      145 MO     5g1+       0.0000    0.0000   -0.0000   -0.0000   -0.0000    0.0000    0.0000   -0.0003   -0.0000    0.0000
      146 MO     6g1+      -0.0000   -0.0000    0.0000    0.0000    0.0000   -0.0000   -0.0000    0.0004    0.0000   -0.0000
      147 MO     7g1+       0.0000    0.0000   -0.0000   -0.0000   -0.0000    0.0000    0.0000   -0.0007   -0.0000    0.0000
      148 MO     8g1+      -0.0000   -0.0000    0.0000    0.0001    0.0000   -0.0000   -0.0000    0.0009    0.0000   -0.0000
      149 MO     5g2+      -0.0000   -0.0000   -0.0000   -0.0000    0.0000   -0.0000   -0.0000    0.0000    0.0000    0.0000
      150 MO     6g2+       0.0000    0.0000    0.0000    0.0000   -0.0000    0.0000    0.0000   -0.0000   -0.0000   -0.0000
      151 MO     7g2+      -0.0000   -0.0000   -0.0000   -0.0000    0.0000   -0.0000   -0.0000    0.0000    0.0000    0.0000
      152 MO     8g2+       0.0000    0.0000    0.0000    0.0000   -0.0000    0.0000    0.0000   -0.0000   -0.0000   -0.0000
      153 MO     5g3+       0.0000    0.0000   -0.0000   -0.0000   -0.0000    0.0001   -0.0000    0.0000   -0.0002    0.0000
      154 MO     6g3+      -0.0000   -0.0000    0.0000    0.0000    0.0000   -0.0001   -0.0000   -0.0000    0.0003   -0.0000
      155 MO     7g3+       0.0000    0.0001   -0.0000   -0.0000   -0.0001    0.0003   -0.0000    0.0000   -0.0005    0.0000
      156 MO     8g3+      -0.0000   -0.0001    0.0000    0.0000    0.0001   -0.0005   -0.0000   -0.0000    0.0007   -0.0000
      157 MO     5g4+       0.0000    0.0000   -0.0000   -0.0000   -0.0000    0.0000    0.0000   -0.0002   -0.0000   -0.0000
      158 MO     6g4+      -0.0000   -0.0000    0.0000    0.0000    0.0000   -0.0000   -0.0000    0.0003    0.0000    0.0000
      159 MO     7g4+       0.0000    0.0000   -0.0000   -0.0000   -0.0000    0.0000    0.0000   -0.0005   -0.0000   -0.0000
      160 MO     8g4+      -0.0000   -0.0000    0.0000    0.0001    0.0000   -0.0000   -0.0000    0.0007    0.0000    0.0000
      161 MO     6h5-      -0.0000   -0.0000    0.0000   -0.0000   -0.0000   -0.0000    0.0000    0.0000   -0.0000   -0.0001
      162 MO     7h5-       0.0000    0.0000   -0.0000    0.0000    0.0000    0.0000   -0.0000   -0.0000   -0.0000    0.0001
      163 MO     6h4-       0.0000    0.0000    0.0000   -0.0000    0.0000    0.0000    0.0000    0.0000    0.0000    0.0000
      164 MO     7h4-       0.0000   -0.0000   -0.0000    0.0000   -0.0000   -0.0000   -0.0000   -0.0000   -0.0000   -0.0000
      165 MO     6h3-      -0.0000   -0.0000   -0.0000   -0.0000   -0.0000   -0.0000   -0.0000    0.0000    0.0000   -0.0000
      166 MO     7h3-       0.0000    0.0000    0.0000    0.0000    0.0000    0.0000    0.0000   -0.0000    0.0000    0.0000
      167 MO     6h2-      -0.0000    0.0000    0.0000   -0.0000    0.0000    0.0000    0.0000    0.0000   -0.0000   -0.0001
      168 MO     7h2-       0.0000   -0.0000   -0.0000    0.0000   -0.0000   -0.0000   -0.0000   -0.0000    0.0000    0.0001
      169 MO     6h1-      -0.0000   -0.0000    0.0000   -0.0000   -0.0000   -0.0000   -0.0000   -0.0000   -0.0000    0.0001
      170 MO     7h1-       0.0000    0.0000   -0.0000    0.0000    0.0000    0.0000    0.0000    0.0000   -0.0000   -0.0001
      171 MO     6h0       -0.0000   -0.0000   -0.0000   -0.0000   -0.0000   -0.0000   -0.0000   -0.0000   -0.0000    0.0000
      172 MO     7h0        0.0000    0.0000    0.0000    0.0000    0.0000    0.0000    0.0000    0.0000    0.0000   -0.0000
      173 MO     6h1+       0.0000   -0.0000    0.0000    0.0000    0.0000   -0.0000    0.0000   -0.0000    0.0000    0.0000
      174 MO     7h1+      -0.0000    0.0000   -0.0000   -0.0000   -0.0000    0.0000   -0.0000    0.0000   -0.0000   -0.0000
      175 MO     6h2+       0.0000    0.0000   -0.0000   -0.0000   -0.0000    0.0000    0.0000   -0.0000   -0.0000    0.0000
      176 MO     7h2+      -0.0000   -0.0000    0.0000    0.0000    0.0000   -0.0000   -0.0000    0.0000    0.0000   -0.0000
      177 MO     6h3+      -0.0000   -0.0000    0.0000    0.0000    0.0000   -0.0000    0.0000   -0.0000    0.0000   -0.0000
      178 MO     7h3+       0.0000    0.0000   -0.0000   -0.0000   -0.0000    0.0000   -0.0000    0.0000   -0.0000   -0.0000
      179 MO     6h4+      -0.0000   -0.0000    0.0000    0.0000    0.0000   -0.0000   -0.0000    0.0000    0.0000    0.0000
      180 MO     7h4+       0.0000    0.0000   -0.0000   -0.0000   -0.0000    0.0000    0.0000   -0.0000   -0.0000   -0.0000
      181 MO     6h5+      -0.0000   -0.0000   -0.0000   -0.0000    0.0000   -0.0000    0.0000   -0.0000   -0.0000    0.0000
      182 MO     7h5+       0.0000    0.0000    0.0000    0.0000   -0.0000    0.0000   -0.0000    0.0000    0.0000   -0.0000

          Orbital           11        12        13        14        15        16        17        18        19        20    
          Energy           -5.8969   -5.3967   -5.3631   -5.3631   -2.6178   -1.6483   -1.6483   -1.6135   -0.3989   -0.2911
          Occ. No.          2.0000    2.0000    2.0000    2.0000    2.0000    2.0000    2.0000    2.0000    0.0000    0.0000

        1 MO     1s         0.0000    0.0000   -0.0000    0.0000    0.0000    0.0000    0.0000   -0.0000   -0.0000   -0.0000
        2 MO     2s         0.0000    0.0029   -0.0000    0.0000    0.0012    0.0000    0.0000    0.0002   -0.0004   -0.0000
        3 MO     3s         0.0000    0.0132   -0.0000    0.0000   -0.0504    0.0000    0.0000    0.0056    0.0131   -0.0000
        4 MO     4s         0.0000    0.0200   -0.0000    0.0000    0.9749   -0.0000   -0.0000   -0.0352   -0.0883    0.0000
        5 MO     5s        -0.0000   -0.0022    0.0000   -0.0000    0.1083   -0.0000   -0.0000   -0.0178    0.9847   -0.0000
        6 MO     6s         0.0000    0.0025   -0.0000    0.0000   -0.0988    0.0000    0.0000    0.0140   -0.0023   -0.0000
        7 MO     7s        -0.0000   -0.0057    0.0000   -0.0000    0.1499   -0.0000   -0.0000   -0.0165   -0.1393    0.0000
        8 MO     8s         0.0000    0.0034   -0.0000    0.0000   -0.0234    0.0000   -0.0000    0.0003   -0.0376    0.0000
        9 MO     9s        -0.0000   -0.0025    0.0000   -0.0000    0.0092   -0.0000   -0.0000   -0.0012   -0.0132    0.0000
       10 MO    10s         0.0000    0.0024   -0.0000    0.0000   -0.0081    0.0000    0.0000    0.0011    0.0021    0.0000
       11 MO     2px        0.0001   -0.0000   -0.0073    0.0000    0.0000    0.0000    0.0009    0.0000   -0.0000   -0.0000
       12 MO     3px       -0.0029   -0.0000   -0.0599    0.0000    0.0000   -0.0000   -0.0570   -0.0000   -0.0000    0.0000
       13 MO     4px        0.0003   -0.0000   -0.0470    0.0000    0.0000    0.0000    0.9655    0.0000    0.0000   -0.0000
       14 MO     5px       -0.0001    0.0000    0.0106   -0.0000   -0.0000    0.0000    0.1583    0.0000    0.0000    0.0000
       15 MO     6px        0.0003   -0.0000   -0.0206    0.0000    0.0000   -0.0000   -0.1864   -0.0000   -0.0000    0.0000
       16 MO     7px       -0.0003    0.0000    0.0131   -0.0000   -0.0000    0.0000    0.0364    0.0000   -0.0000    0.0000
       17 MO     8px        0.0004   -0.0000   -0.0112    0.0000    0.0000   -0.0000   -0.0065   -0.0000   -0.0000    0.0000
       18 MO     9px       -0.0003    0.0000    0.0078   -0.0000   -0.0000    0.0000    0.0161    0.0000    0.0000   -0.0000
       19 MO    10px        0.0005   -0.0000   -0.0060    0.0000   -0.0000   -0.0000   -0.0029   -0.0000   -0.0000   -0.0000
       20 MO     2py       -0.0000    0.0000   -0.0000   -0.0073    0.0000    0.0009   -0.0000   -0.0000    0.0000    0.0006
       21 MO     3py        0.0000    0.0000   -0.0000   -0.0599   -0.0000   -0.0570    0.0000    0.0000   -0.0000   -0.0103
       22 MO     4py       -0.0000    0.0000   -0.0000   -0.0470   -0.0000    0.9655   -0.0000   -0.0000    0.0000    0.0723
       23 MO     5py        0.0000   -0.0000    0.0000    0.0106    0.0000    0.1583   -0.0000   -0.0000   -0.0000   -0.8591
       24 MO     6py       -0.0000    0.0000   -0.0000   -0.0206   -0.0000   -0.1864    0.0000    0.0000   -0.0000   -0.3275
       25 MO     7py        0.0000   -0.0000    0.0000    0.0131    0.0000    0.0364   -0.0000   -0.0000   -0.0000   -0.1274
       26 MO     8py       -0.0000    0.0000   -0.0000   -0.0112   -0.0000   -0.0065    0.0000    0.0000   -0.0000   -0.0168
       27 MO     9py        0.0000   -0.0000    0.0000    0.0078    0.0000    0.0161   -0.0000   -0.0000    0.0000    0.0078
       28 MO    10py       -0.0000    0.0000   -0.0000   -0.0060   -0.0000   -0.0029    0.0000   -0.0000   -0.0000    0.0009
       29 MO     2pz       -0.0000    0.0034   -0.0000    0.0000   -0.0001   -0.0000   -0.0000    0.0005   -0.0000    0.0000
       30 MO     3pz       -0.0000    0.0180   -0.0000    0.0000    0.0038    0.0000    0.0000   -0.0623   -0.0017    0.0000
       31 MO     4pz       -0.0000    0.0216   -0.0000    0.0000    0.0428   -0.0000   -0.0000    0.9609    0.0071   -0.0000
       32 MO     5pz        0.0000   -0.0050    0.0000   -0.0000   -0.0021   -0.0000   -0.0000    0.1710    0.0288    0.0000
       33 MO     6pz       -0.0000    0.0099   -0.0000    0.0000    0.0026    0.0000    0.0000   -0.1982   -0.0031    0.0000
       34 MO     7pz        0.0000   -0.0065    0.0000   -0.0000   -0.0009   -0.0000   -0.0000    0.0373   -0.0010    0.0000
       35 MO     8pz       -0.0000    0.0060   -0.0000    0.0000    0.0006    0.0000    0.0000   -0.0071   -0.0013    0.0000
       36 MO     9pz        0.0000   -0.0044    0.0000   -0.0000   -0.0006   -0.0000   -0.0000    0.0178    0.0001   -0.0000
       37 MO    10pz       -0.0000    0.0040   -0.0000    0.0000   -0.0000    0.0000    0.0000   -0.0034   -0.0001   -0.0000
       38 MO     3d2-       0.0000   -0.0000    0.0000    0.5014   -0.0000    0.0141   -0.0000   -0.0000    0.0000   -0.0075
       39 MO     4d2-       0.0000   -0.0000    0.0000    0.0731   -0.0000    0.0218   -0.0000   -0.0000    0.0000    0.1398
       40 MO     5d2-      -0.0000    0.0000   -0.0000   -0.0649    0.0000   -0.0102    0.0000    0.0000    0.0000    0.0898
       41 MO     6d2-       0.0000   -0.0000    0.0000    0.0445    0.0000    0.0033   -0.0000   -0.0000    0.0000    0.0350
       42 MO     7d2-      -0.0000    0.0000   -0.0000   -0.0318    0.0000   -0.0020    0.0000    0.0000    0.0000    0.0131
       43 MO     8d2-       0.0000   -0.0000    0.0000    0.0286   -0.0000    0.0020   -0.0000    0.0000   -0.0000   -0.0049
       44 MO     9d2-      -0.0000    0.0000   -0.0000   -0.0206    0.0000   -0.0014    0.0000    0.0000    0.0000   -0.0035
       45 MO    10d2-       0.0000   -0.0000    0.0000    0.0209    0.0000    0.0014   -0.0000    0.0000    0.0000   -0.0019
       46 MO    11d2-      -0.0000    0.0000   -0.0000   -0.0049    0.0000    0.0001   -0.0000    0.0000    0.0000    0.0001
       47 MO     3d1-      -0.0000   -0.0000    0.0000    0.8305   -0.0000    0.0226   -0.0000   -0.0000   -0.0000   -0.0143
       48 MO     4d1-      -0.0000   -0.0000    0.0000    0.1193   -0.0000    0.0377   -0.0000   -0.0000    0.0000    0.2648
       49 MO     5d1-       0.0000    0.0000   -0.0000   -0.1059    0.0000   -0.0183    0.0000    0.0000    0.0000    0.1686
       50 MO     6d1-      -0.0000   -0.0000    0.0000    0.0723   -0.0000    0.0061   -0.0000   -0.0000    0.0000    0.0653
       51 MO     7d1-       0.0000    0.0000   -0.0000   -0.0515    0.0000   -0.0034    0.0000    0.0000    0.0000    0.0245
       52 MO     8d1-      -0.0000   -0.0000    0.0000    0.0462   -0.0000    0.0031   -0.0000   -0.0000   -0.0000   -0.0093
       53 MO     9d1-       0.0000    0.0000   -0.0000   -0.0330    0.0000   -0.0019    0.0000    0.0000   -0.0000   -0.0066
       54 MO    10d1-      -0.0000   -0.0000    0.0000    0.0331   -0.0000    0.0019   -0.0000   -0.0000   -0.0000   -0.0035
       55 MO    11d1-       0.0000    0.0000   -0.0000   -0.0075    0.0000    0.0005   -0.0000   -0.0000   -0.0000    0.0003
       56 MO     3d0        0.0000    0.9738   -0.0000    0.0000   -0.0156   -0.0000   -0.0000   -0.0127    0.0007   -0.0000
       57 MO     4d0        0.0000    0.1373   -0.0000    0.0000   -0.0119   -0.0000   -0.0000   -0.0163    0.0207    0.0000
       58 MO     5d0       -0.0000   -0.1220    0.0000   -0.0000    0.0080    0.0000    0.0000    0.0067    0.0034    0.0000
       59 MO     6d0        0.0000    0.0835   -0.0000    0.0000   -0.0039   -0.0000   -0.0000   -0.0020    0.0005    0.0000
       60 MO     7d0       -0.0000   -0.0595    0.0000   -0.0000    0.0021    0.0000    0.0000    0.0017   -0.0002    0.0000
       61 MO     8d0        0.0000    0.0533   -0.0000    0.0000   -0.0017   -0.0000   -0.0000   -0.0020   -0.0001   -0.0000
       62 MO     9d0       -0.0000   -0.0380    0.0000   -0.0000    0.0011   -0.0000    0.0000    0.0014    0.0001   -0.0000
       63 MO    10d0        0.0000    0.0380   -0.0000    0.0000   -0.0010    0.0000    0.0000   -0.0017   -0.0000   -0.0000
       64 MO    11d0        0.0000   -0.0085    0.0000   -0.0000   -0.0004   -0.0000   -0.0000    0.0002    0.0002    0.0000
       65 MO     3d1+       0.5091    0.0000    0.8305   -0.0000   -0.0000    0.0000    0.0226    0.0000    0.0000    0.0000
       66 MO     4d1+       0.0548    0.0000    0.1193   -0.0000   -0.0000    0.0000    0.0377    0.0000    0.0000   -0.0000
       67 MO     5d1+      -0.0495   -0.0000   -0.1059    0.0000    0.0000   -0.0000   -0.0183   -0.0000    0.0000   -0.0000
       68 MO     6d1+       0.0343    0.0000    0.0723   -0.0000   -0.0000    0.0000    0.0061    0.0000    0.0000   -0.0000
       69 MO     7d1+      -0.0246   -0.0000   -0.0515    0.0000    0.0000   -0.0000   -0.0034   -0.0000   -0.0000   -0.0000
       70 MO     8d1+       0.0218    0.0000    0.0462   -0.0000   -0.0000    0.0000    0.0031    0.0000   -0.0000    0.0000
       71 MO     9d1+      -0.0153   -0.0000   -0.0330    0.0000    0.0000   -0.0000   -0.0019   -0.0000   -0.0000    0.0000
       72 MO    10d1+       0.0148    0.0000    0.0331   -0.0000   -0.0000    0.0000    0.0019    0.0000    0.0000    0.0000
       73 MO    11d1+      -0.0031   -0.0000   -0.0075    0.0000   -0.0000    0.0000    0.0005    0.0000    0.0000   -0.0000
       74 MO     3d2+       0.8422   -0.0000   -0.5014    0.0000    0.0000   -0.0000   -0.0141   -0.0000   -0.0000   -0.0000
       75 MO     4d2+       0.0921   -0.0000   -0.0731    0.0000    0.0000   -0.0000   -0.0218   -0.0000   -0.0000    0.0000
       76 MO     5d2+      -0.0831    0.0000    0.0649   -0.0000   -0.0000    0.0000    0.0102    0.0000   -0.0000    0.0000
       77 MO     6d2+       0.0578   -0.0000   -0.0445    0.0000    0.0000   -0.0000   -0.0033   -0.0000   -0.0000    0.0000
       78 MO     7d2+      -0.0416    0.0000    0.0318   -0.0000   -0.0000    0.0000    0.0020    0.0000    0.0000    0.0000
       79 MO     8d2+       0.0372   -0.0000   -0.0286    0.0000    0.0000   -0.0000   -0.0020   -0.0000    0.0000   -0.0000
       80 MO     9d2+      -0.0263    0.0000    0.0206   -0.0000   -0.0000    0.0000    0.0014    0.0000    0.0000   -0.0000
       81 MO    10d2+       0.0258   -0.0000   -0.0209    0.0000    0.0000   -0.0000   -0.0014   -0.0000   -0.0000   -0.0000
       82 MO    11d2+      -0.0058    0.0000    0.0049   -0.0000   -0.0000   -0.0000   -0.0001   -0.0000    0.0000    0.0000
       83 MO     4f3-       0.0000   -0.0000    0.0000    0.0000   -0.0000    0.0000   -0.0000    0.0000    0.0000    0.0000
       84 MO     5f3-       0.0000   -0.0000    0.0000    0.0000   -0.0000    0.0000   -0.0000   -0.0000   -0.0000   -0.0000
       85 MO     6f3-      -0.0000    0.0000   -0.0000   -0.0000   -0.0000   -0.0000    0.0000   -0.0000   -0.0000   -0.0000
       86 MO     7f3-       0.0000   -0.0000    0.0000    0.0000    0.0000    0.0000   -0.0000   -0.0000   -0.0000   -0.0000
       87 MO     8f3-       0.0000   -0.0000    0.0000    0.0000    0.0000    0.0000   -0.0000    0.0000    0.0000    0.0000
       88 MO     9f3-      -0.0000    0.0000   -0.0000   -0.0000   -0.0000   -0.0000    0.0000   -0.0000    0.0000    0.0000
       89 MO     4f2-       0.0000   -0.0000    0.0000    0.0033   -0.0000    0.0011   -0.0000   -0.0000   -0.0000    0.0003
       90 MO     5f2-       0.0000   -0.0000    0.0000    0.0032    0.0000    0.0008   -0.0000   -0.0000   -0.0000    0.0001
       91 MO     6f2-      -0.0000    0.0000   -0.0000   -0.0025    0.0000   -0.0005    0.0000    0.0000    0.0000    0.0001
       92 MO     7f2-       0.0000   -0.0000    0.0000    0.0022    0.0000    0.0003   -0.0000   -0.0000   -0.0000   -0.0000
       93 MO     8f2-       0.0000   -0.0000    0.0000    0.0018   -0.0000    0.0002   -0.0000   -0.0000   -0.0000   -0.0000
       94 MO     9f2-      -0.0000    0.0000   -0.0000   -0.0114   -0.0000   -0.0016    0.0000    0.0000   -0.0000    0.0002
       95 MO     4f1-      -0.0000   -0.0000    0.0000    0.0018   -0.0000   -0.0008    0.0000    0.0000    0.0000    0.0002
       96 MO     5f1-      -0.0000   -0.0000    0.0000    0.0018    0.0000   -0.0001    0.0000   -0.0000   -0.0000   -0.0005
       97 MO     6f1-       0.0000    0.0000   -0.0000   -0.0015   -0.0000   -0.0002    0.0000   -0.0000   -0.0000   -0.0005
       98 MO     7f1-      -0.0000   -0.0000    0.0000    0.0012    0.0000    0.0001   -0.0000   -0.0000   -0.0000   -0.0004
       99 MO     8f1-      -0.0000   -0.0000    0.0000    0.0008    0.0000    0.0001   -0.0000   -0.0000    0.0000    0.0002
      100 MO     9f1-       0.0000    0.0000   -0.0000   -0.0041   -0.0000   -0.0011    0.0000    0.0000    0.0000   -0.0000
      101 MO     4f0       -0.0000    0.0007   -0.0000    0.0000   -0.0008    0.0000    0.0000   -0.0012    0.0002    0.0000
      102 MO     5f0       -0.0000    0.0007   -0.0000    0.0000    0.0003   -0.0000   -0.0000   -0.0002   -0.0011    0.0000
      103 MO     6f0        0.0000   -0.0007    0.0000   -0.0000   -0.0004    0.0000    0.0000   -0.0001   -0.0003   -0.0000
      104 MO     7f0       -0.0000    0.0005   -0.0000    0.0000    0.0003   -0.0000   -0.0000    0.0001   -0.0003   -0.0000
      105 MO     8f0       -0.0000    0.0001   -0.0000    0.0000    0.0004   -0.0000   -0.0000    0.0001   -0.0001    0.0000
      106 MO     9f0        0.0000    0.0007    0.0000    0.0000   -0.0033    0.0000    0.0000   -0.0013    0.0010   -0.0000
      107 MO     4f1+       0.0013    0.0000    0.0018   -0.0000   -0.0000   -0.0000   -0.0008   -0.0000    0.0000   -0.0000
      108 MO     5f1+       0.0014    0.0000    0.0018   -0.0000   -0.0000   -0.0000   -0.0001   -0.0000   -0.0000    0.0000
      109 MO     6f1+      -0.0011   -0.0000   -0.0015    0.0000    0.0000   -0.0000   -0.0002   -0.0000   -0.0000    0.0000
      110 MO     7f1+       0.0009    0.0000    0.0012   -0.0000   -0.0000    0.0000    0.0001    0.0000   -0.0000    0.0000
      111 MO     8f1+       0.0007    0.0000    0.0008   -0.0000   -0.0000    0.0000    0.0001    0.0000   -0.0000   -0.0000
      112 MO     9f1+      -0.0039   -0.0000   -0.0041    0.0000   -0.0000   -0.0000   -0.0011   -0.0000    0.0000    0.0000
      113 MO     4f2+       0.0025   -0.0000   -0.0033    0.0000    0.0000   -0.0000   -0.0011   -0.0000   -0.0000    0.0000
      114 MO     5f2+       0.0025   -0.0000   -0.0032    0.0000    0.0000   -0.0000   -0.0008   -0.0000    0.0000    0.0000
      115 MO     6f2+      -0.0020    0.0000    0.0025   -0.0000   -0.0000    0.0000    0.0005    0.0000    0.0000    0.0000
      116 MO     7f2+       0.0017   -0.0000   -0.0022    0.0000    0.0000   -0.0000   -0.0003   -0.0000    0.0000   -0.0000
      117 MO     8f2+       0.0014   -0.0000   -0.0018    0.0000    0.0000   -0.0000   -0.0002   -0.0000    0.0000   -0.0000
      118 MO     9f2+      -0.0080    0.0000    0.0114   -0.0000    0.0000    0.0000    0.0016    0.0000   -0.0000    0.0000
      119 MO     4f3+       0.0000    0.0012   -0.0000    0.0000   -0.0005   -0.0000   -0.0000   -0.0008    0.0001    0.0000
      120 MO     5f3+       0.0000    0.0012   -0.0000    0.0000    0.0002   -0.0000   -0.0000   -0.0005   -0.0007    0.0000
      121 MO     6f3+      -0.0000   -0.0009    0.0000   -0.0000   -0.0003    0.0000    0.0000    0.0003   -0.0002    0.0000
      122 MO     7f3+       0.0000    0.0008   -0.0000    0.0000    0.0002   -0.0000   -0.0000   -0.0002   -0.0002    0.0000
      123 MO     8f3+       0.0000    0.0007   -0.0000    0.0000    0.0002   -0.0000   -0.0000   -0.0002   -0.0000   -0.0000
      124 MO     9f3+      -0.0000   -0.0045    0.0000   -0.0000   -0.0021    0.0000    0.0000    0.0013    0.0007    0.0000
      125 MO     5g4-      -0.0000   -0.0000    0.0000    0.0001    0.0000   -0.0000    0.0000   -0.0000    0.0000   -0.0001
      126 MO     6g4-       0.0000    0.0000   -0.0000   -0.0002    0.0000    0.0001   -0.0000   -0.0000   -0.0000   -0.0002
      127 MO     7g4-      -0.0000   -0.0000    0.0000    0.0003   -0.0000    0.0000   -0.0000   -0.0000    0.0000   -0.0002
      128 MO     8g4-       0.0000    0.0000   -0.0000   -0.0005   -0.0000   -0.0002    0.0000    0.0000   -0.0000   -0.0001
      129 MO     5g3-      -0.0000   -0.0000    0.0000   -0.0000   -0.0000   -0.0000    0.0000    0.0000    0.0000   -0.0000
      130 MO     6g3-       0.0000    0.0000    0.0000    0.0000    0.0000    0.0000   -0.0000    0.0000   -0.0000   -0.0000
      131 MO     7g3-      -0.0000   -0.0000    0.0000   -0.0000   -0.0000   -0.0000    0.0000   -0.0000    0.0000   -0.0000
      132 MO     8g3-       0.0000   -0.0000    0.0000    0.0000    0.0000    0.0000   -0.0000    0.0000    0.0000   -0.0000
      133 MO     5g2-      -0.0000    0.0000   -0.0000   -0.0002    0.0000   -0.0000    0.0000   -0.0000    0.0000   -0.0001
      134 MO     6g2-       0.0000   -0.0000    0.0000    0.0003    0.0000    0.0000   -0.0000    0.0000   -0.0000   -0.0001
      135 MO     7g2-      -0.0000    0.0000   -0.0000   -0.0005   -0.0000   -0.0000    0.0000   -0.0000    0.0000   -0.0000
      136 MO     8g2-       0.0000   -0.0000    0.0000    0.0006    0.0000    0.0000   -0.0000    0.0000   -0.0000   -0.0000
      137 MO     5g1-       0.0000    0.0000   -0.0000   -0.0003    0.0000   -0.0001    0.0000    0.0000    0.0000   -0.0003
      138 MO     6g1-      -0.0000   -0.0000    0.0000    0.0003   -0.0000    0.0001   -0.0000   -0.0000   -0.0000   -0.0004
      139 MO     7g1-       0.0000    0.0000   -0.0000   -0.0004    0.0000    0.0000   -0.0000   -0.0000    0.0000   -0.0003
      140 MO     8g1-      -0.0000   -0.0000    0.0000    0.0004   -0.0000   -0.0002    0.0000    0.0000   -0.0000   -0.0001
      141 MO     5g0        0.0000   -0.0006    0.0000   -0.0000    0.0000    0.0000    0.0000   -0.0000   -0.0000   -0.0000
      142 MO     6g0       -0.0000    0.0007   -0.0000    0.0000   -0.0000    0.0000   -0.0000    0.0001    0.0000    0.0000
      143 MO     7g0        0.0000   -0.0010    0.0000   -0.0000    0.0000    0.0000   -0.0000    0.0001    0.0000    0.0000
      144 MO     8g0       -0.0000    0.0013   -0.0000    0.0000   -0.0000    0.0000    0.0000   -0.0004    0.0000    0.0000
      145 MO     5g1+      -0.0003   -0.0000   -0.0003    0.0000   -0.0000   -0.0000   -0.0001   -0.0000   -0.0000    0.0000
      146 MO     6g1+       0.0003    0.0000    0.0003   -0.0000    0.0000    0.0000    0.0001    0.0000    0.0000    0.0000
      147 MO     7g1+      -0.0005   -0.0000   -0.0004    0.0000   -0.0000    0.0000    0.0000    0.0000    0.0000    0.0000
      148 MO     8g1+       0.0007    0.0000    0.0004   -0.0000    0.0000   -0.0000   -0.0002   -0.0000   -0.0000    0.0000
      149 MO     5g2+      -0.0002    0.0000    0.0002   -0.0000    0.0000    0.0000    0.0000    0.0000   -0.0000   -0.0000
      150 MO     6g2+       0.0002   -0.0000   -0.0003    0.0000   -0.0000   -0.0000   -0.0000   -0.0000   -0.0000   -0.0000
      151 MO     7g2+      -0.0003    0.0000    0.0005   -0.0000    0.0000    0.0000    0.0000    0.0000   -0.0000   -0.0000
      152 MO     8g2+       0.0004   -0.0000   -0.0006    0.0000   -0.0000   -0.0000   -0.0000    0.0000    0.0000   -0.0000
      153 MO     5g3+      -0.0000   -0.0000    0.0000    0.0000   -0.0000    0.0000    0.0000   -0.0000    0.0000    0.0000
      154 MO     6g3+       0.0000    0.0001   -0.0000    0.0000    0.0001   -0.0000   -0.0000    0.0000    0.0000    0.0000
      155 MO     7g3+      -0.0000   -0.0001    0.0000   -0.0000   -0.0001    0.0000    0.0000    0.0001    0.0000    0.0000
      156 MO     8g3+       0.0000    0.0002   -0.0000    0.0000    0.0002   -0.0000   -0.0000   -0.0002   -0.0001   -0.0000
      157 MO     5g4+       0.0000    0.0000    0.0001   -0.0000   -0.0000   -0.0000   -0.0000   -0.0000    0.0000    0.0000
      158 MO     6g4+      -0.0000   -0.0000   -0.0002    0.0000    0.0000    0.0000    0.0001    0.0000    0.0000    0.0000
      159 MO     7g4+       0.0001    0.0000    0.0003   -0.0000   -0.0000    0.0000    0.0000    0.0000    0.0000    0.0000
      160 MO     8g4+      -0.0001   -0.0000   -0.0005    0.0000    0.0000   -0.0000   -0.0002   -0.0000   -0.0000    0.0000
      161 MO     6h5-      -0.0000    0.0000   -0.0000   -0.0001    0.0000   -0.0000    0.0000    0.0000    0.0000    0.0000
      162 MO     7h5-       0.0000   -0.0000    0.0000    0.0001   -0.0000    0.0000   -0.0000   -0.0000   -0.0000    0.0000
      163 MO     6h4-       0.0000    0.0000   -0.0000   -0.0001   -0.0000    0.0001   -0.0000   -0.0000    0.0000    0.0000
      164 MO     7h4-      -0.0000   -0.0000    0.0000    0.0001    0.0000   -0.0000    0.0000    0.0000    0.0000    0.0000
      165 MO     6h3-      -0.0000   -0.0000    0.0000    0.0000    0.0000   -0.0000    0.0000    0.0000    0.0000   -0.0000
      166 MO     7h3-       0.0000   -0.0000   -0.0000   -0.0000   -0.0000    0.0000   -0.0000   -0.0000   -0.0000    0.0000
      167 MO     6h2-      -0.0000    0.0000   -0.0000   -0.0001   -0.0000    0.0000   -0.0000   -0.0000    0.0000    0.0000
      168 MO     7h2-       0.0000   -0.0000    0.0000    0.0001    0.0000    0.0000   -0.0000   -0.0000    0.0000    0.0000
      169 MO     6h1-       0.0000    0.0000   -0.0000   -0.0001    0.0000   -0.0000    0.0000    0.0000    0.0000    0.0001
      170 MO     7h1-      -0.0000   -0.0000    0.0000    0.0002   -0.0000    0.0000   -0.0000   -0.0000    0.0000    0.0001
      171 MO     6h0       -0.0000   -0.0002    0.0000    0.0000    0.0000    0.0000   -0.0000   -0.0000    0.0000   -0.0000
      172 MO     7h0        0.0000    0.0002   -0.0000   -0.0000   -0.0000   -0.0000    0.0000   -0.0000    0.0000    0.0000
      173 MO     6h1+      -0.0001   -0.0000   -0.0001    0.0000    0.0000   -0.0000   -0.0000    0.0000    0.0000   -0.0000
      174 MO     7h1+       0.0001    0.0000    0.0002   -0.0000   -0.0000    0.0000    0.0000    0.0000    0.0000   -0.0000
      175 MO     6h2+      -0.0001    0.0000    0.0001   -0.0000   -0.0000   -0.0000   -0.0000   -0.0000   -0.0000    0.0000
      176 MO     7h2+       0.0001   -0.0000   -0.0001    0.0000    0.0000   -0.0000   -0.0000    0.0000   -0.0000    0.0000
      177 MO     6h3+      -0.0000   -0.0001    0.0000   -0.0000    0.0000   -0.0000   -0.0000    0.0001    0.0000    0.0000
      178 MO     7h3+       0.0000    0.0001   -0.0000    0.0000   -0.0000    0.0000    0.0000   -0.0000    0.0000    0.0000
      179 MO     6h4+      -0.0000   -0.0000   -0.0001    0.0000    0.0000    0.0000    0.0001    0.0000    0.0000   -0.0000
      180 MO     7h4+       0.0000    0.0000    0.0001   -0.0000   -0.0000   -0.0000   -0.0000   -0.0000    0.0000   -0.0000
      181 MO     6h5+      -0.0001    0.0000    0.0001   -0.0000    0.0000    0.0000    0.0000    0.0000   -0.0000    0.0000
      182 MO     7h5+       0.0001   -0.0000   -0.0001    0.0000   -0.0000   -0.0000   -0.0000   -0.0000   -0.0000    0.0000

          Orbital           21        22        23        24        25        26        27        28        29        30    
          Energy           -0.2911   -0.2867   -0.2851   -0.2851   -0.2764   -0.2745   -0.2745   -0.1846   -0.1493   -0.1493
          Occ. No.          0.0000    0.0000    0.0000    0.0000    0.0000    0.0000    0.0000    0.0000    0.0000    0.0000

        1 MO     1s        -0.0000    0.0000   -0.0000    0.0000   -0.0000    0.0000    0.0000    0.0000    0.0000    0.0000
        2 MO     2s        -0.0000   -0.0001    0.0000   -0.0000   -0.0003    0.0000    0.0000    0.0002    0.0000    0.0000
        3 MO     3s        -0.0000   -0.0014    0.0000   -0.0000   -0.0009   -0.0000   -0.0000   -0.0078    0.0000    0.0000
        4 MO     4s         0.0000    0.0054   -0.0000    0.0000    0.0028    0.0000    0.0000    0.0490   -0.0000   -0.0000
        5 MO     5s        -0.0000   -0.0260    0.0000   -0.0000   -0.0125   -0.0000   -0.0000    0.0519    0.0000    0.0000
        6 MO     6s        -0.0000   -0.0203    0.0000   -0.0000   -0.0130   -0.0000    0.0000    0.9468   -0.0000   -0.0000
        7 MO     7s         0.0000    0.0079   -0.0000    0.0000    0.0040    0.0000    0.0000    0.2830   -0.0000   -0.0000
        8 MO     8s         0.0000    0.0038   -0.0000    0.0000    0.0021    0.0000   -0.0000    0.1250   -0.0000   -0.0000
        9 MO     9s         0.0000    0.0020   -0.0000    0.0000    0.0012    0.0000   -0.0000    0.0372   -0.0000   -0.0000
       10 MO    10s        -0.0000   -0.0001    0.0000   -0.0000   -0.0002    0.0000    0.0000    0.0010    0.0000    0.0000
       11 MO     2px       -0.0006   -0.0000    0.0000   -0.0000    0.0000    0.0008    0.0000    0.0000    0.0000    0.0000
       12 MO     3px        0.0103   -0.0000   -0.0000    0.0001    0.0000    0.0085    0.0000    0.0000    0.0000    0.0000
       13 MO     4px       -0.0723    0.0000    0.0000   -0.0010   -0.0000   -0.0433   -0.0000   -0.0000   -0.0000   -0.0000
       14 MO     5px        0.8591   -0.0000   -0.0000    0.0128    0.0000    0.3169    0.0000    0.0000   -0.0000   -0.0003
       15 MO     6px        0.3275   -0.0000   -0.0000    0.0055    0.0000    0.1605    0.0000    0.0000   -0.0000   -0.0010
       16 MO     7px        0.1274   -0.0000   -0.0000    0.0024    0.0000    0.0708    0.0000    0.0000   -0.0000   -0.0010
       17 MO     8px        0.0168   -0.0000   -0.0000    0.0002    0.0000    0.0160    0.0000    0.0000   -0.0000   -0.0003
       18 MO     9px       -0.0078    0.0000    0.0000   -0.0000   -0.0000   -0.0017   -0.0000    0.0000   -0.0000   -0.0002
       19 MO    10px       -0.0009    0.0000    0.0000   -0.0001    0.0000    0.0008    0.0000    0.0000    0.0000    0.0000
       20 MO     2py       -0.0000   -0.0000    0.0000    0.0000    0.0000   -0.0000    0.0008    0.0000   -0.0000    0.0000
       21 MO     3py        0.0000    0.0000   -0.0001   -0.0000    0.0000   -0.0000    0.0085   -0.0000   -0.0000    0.0000
       22 MO     4py       -0.0000   -0.0000    0.0010    0.0000   -0.0000    0.0000   -0.0433    0.0000    0.0000   -0.0000
       23 MO     5py        0.0000    0.0000   -0.0128   -0.0000    0.0000   -0.0000    0.3169   -0.0000    0.0003   -0.0000
       24 MO     6py        0.0000    0.0000   -0.0055   -0.0000    0.0000   -0.0000    0.1605   -0.0000    0.0010   -0.0000
       25 MO     7py        0.0000    0.0000   -0.0024   -0.0000    0.0000   -0.0000    0.0708   -0.0000    0.0010   -0.0000
       26 MO     8py        0.0000    0.0000   -0.0002   -0.0000    0.0000   -0.0000    0.0160   -0.0000    0.0003   -0.0000
       27 MO     9py       -0.0000    0.0000    0.0000    0.0000   -0.0000    0.0000   -0.0017   -0.0000    0.0002   -0.0000
       28 MO    10py       -0.0000    0.0000    0.0001    0.0000    0.0000   -0.0000    0.0008   -0.0000   -0.0000    0.0000
       29 MO     2pz        0.0000   -0.0002   -0.0000   -0.0000   -0.0004    0.0000    0.0000   -0.0000   -0.0000   -0.0000
       30 MO     3pz        0.0000    0.0137   -0.0000    0.0000   -0.0044    0.0000    0.0000    0.0011   -0.0000   -0.0000
       31 MO     4pz       -0.0000   -0.0858    0.0000   -0.0000    0.0232   -0.0000   -0.0000   -0.0042    0.0000    0.0000
       32 MO     5pz        0.0000    0.8923   -0.0000    0.0000   -0.1729    0.0000    0.0000    0.0064    0.0000   -0.0000
       33 MO     6pz        0.0000    0.3661   -0.0000    0.0000   -0.0842    0.0000    0.0000    0.0178   -0.0000   -0.0000
       34 MO     7pz        0.0000    0.1477   -0.0000    0.0000   -0.0363    0.0000    0.0000    0.0138   -0.0000   -0.0000
       35 MO     8pz        0.0000    0.0234   -0.0000    0.0000   -0.0084    0.0000    0.0000    0.0060   -0.0000   -0.0000
       36 MO     9pz       -0.0000   -0.0074    0.0000   -0.0000    0.0012   -0.0000   -0.0000    0.0017   -0.0000   -0.0000
       37 MO    10pz       -0.0000   -0.0005    0.0000   -0.0000   -0.0006    0.0000    0.0000    0.0003   -0.0000   -0.0000
       38 MO     3d2-       0.0000    0.0000   -0.0387   -0.0000   -0.0000    0.0000   -0.0253    0.0000    0.0227   -0.0000
       39 MO     4d2-      -0.0000   -0.0000    0.6966    0.0000    0.0000   -0.0000    0.3587    0.0000   -0.2535    0.0000
       40 MO     5d2-      -0.0000   -0.0000    0.4690    0.0000    0.0000   -0.0000    0.2721   -0.0000    0.1202   -0.0000
       41 MO     6d2-      -0.0000   -0.0000    0.1917    0.0000    0.0000   -0.0000    0.1196   -0.0000    0.4709   -0.0000
       42 MO     7d2-      -0.0000   -0.0000    0.0751    0.0000    0.0000   -0.0000    0.0513   -0.0000    0.5528   -0.0000
       43 MO     8d2-       0.0000   -0.0000   -0.0237   -0.0000    0.0000    0.0000   -0.0119   -0.0000    0.3497   -0.0000
       44 MO     9d2-       0.0000   -0.0000   -0.0200   -0.0000    0.0000    0.0000   -0.0121    0.0000    0.1184   -0.0000
       45 MO    10d2-       0.0000   -0.0000   -0.0098   -0.0000    0.0000    0.0000   -0.0067    0.0000    0.0045   -0.0000
       46 MO    11d2-      -0.0000   -0.0000    0.0000    0.0000    0.0000   -0.0000    0.0001   -0.0000   -0.0002    0.0000
       47 MO     3d1-       0.0000    0.0000    0.0218    0.0000   -0.0000    0.0000   -0.0425   -0.0000   -0.0131    0.0000
       48 MO     4d1-      -0.0000   -0.0000   -0.4023   -0.0000    0.0000   -0.0000    0.6142    0.0000    0.1490   -0.0000
       49 MO     5d1-      -0.0000   -0.0000   -0.2701   -0.0000    0.0000   -0.0000    0.4651   -0.0000   -0.0712    0.0000
       50 MO     6d1-      -0.0000   -0.0000   -0.1105   -0.0000    0.0000   -0.0000    0.2048   -0.0000   -0.2771    0.0000
       51 MO     7d1-      -0.0000   -0.0000   -0.0431   -0.0000    0.0000   -0.0000    0.0875   -0.0000   -0.3252    0.0000
       52 MO     8d1-       0.0000    0.0000    0.0135    0.0000   -0.0000    0.0000   -0.0201   -0.0000   -0.2055    0.0000
       53 MO     9d1-       0.0000    0.0000    0.0116    0.0000   -0.0000    0.0000   -0.0209    0.0000   -0.0696    0.0000
       54 MO    10d1-       0.0000    0.0000    0.0055    0.0000   -0.0000    0.0000   -0.0111    0.0000   -0.0025    0.0000
       55 MO    11d1-      -0.0000   -0.0000    0.0000    0.0000    0.0000   -0.0000    0.0001    0.0000    0.0001   -0.0000
       56 MO     3d0       -0.0000   -0.0081    0.0000   -0.0000   -0.0508    0.0000    0.0000   -0.0008    0.0000    0.0000
       57 MO     4d0        0.0000    0.1578   -0.0000    0.0000    0.7568   -0.0000   -0.0000    0.0004   -0.0000   -0.0000
       58 MO     5d0        0.0000    0.1065   -0.0000    0.0000    0.5607   -0.0000   -0.0000    0.0158    0.0000    0.0000
       59 MO     6d0        0.0000    0.0434   -0.0000    0.0000    0.2432   -0.0000   -0.0000    0.0171    0.0000    0.0000
       60 MO     7d0        0.0000    0.0166    0.0000    0.0000    0.1024   -0.0000   -0.0000    0.0134    0.0000    0.0000
       61 MO     8d0       -0.0000   -0.0054    0.0000   -0.0000   -0.0251    0.0000    0.0000    0.0050    0.0000    0.0000
       62 MO     9d0       -0.0000   -0.0046    0.0000   -0.0000   -0.0248    0.0000    0.0000    0.0002    0.0000    0.0000
       63 MO    10d0       -0.0000   -0.0020    0.0000   -0.0000   -0.0132    0.0000    0.0000   -0.0005    0.0000    0.0000
       64 MO    11d0        0.0000    0.0000    0.0000   -0.0000    0.0001   -0.0000   -0.0000   -0.0001    0.0000    0.0000
       65 MO     3d1+       0.0143    0.0000    0.0000   -0.0218   -0.0000   -0.0425   -0.0000   -0.0000    0.0000    0.0131
       66 MO     4d1+      -0.2648   -0.0000   -0.0000    0.4022    0.0000    0.6142    0.0000    0.0000   -0.0000   -0.1490
       67 MO     5d1+      -0.1686   -0.0000   -0.0000    0.2701    0.0000    0.4652    0.0000    0.0000    0.0000    0.0712
       68 MO     6d1+      -0.0653   -0.0000   -0.0000    0.1105    0.0000    0.2048    0.0000    0.0000    0.0000    0.2771
       69 MO     7d1+      -0.0245   -0.0000   -0.0000    0.0431    0.0000    0.0875    0.0000    0.0000    0.0000    0.3252
       70 MO     8d1+       0.0093    0.0000    0.0000   -0.0135   -0.0000   -0.0201   -0.0000    0.0000    0.0000    0.2055
       71 MO     9d1+       0.0066    0.0000    0.0000   -0.0116   -0.0000   -0.0209   -0.0000    0.0000    0.0000    0.0696
       72 MO    10d1+       0.0035    0.0000    0.0000   -0.0055   -0.0000   -0.0111   -0.0000   -0.0000    0.0000    0.0025
       73 MO    11d1+      -0.0003   -0.0000    0.0000   -0.0000    0.0000    0.0001    0.0000   -0.0000   -0.0000   -0.0001
       74 MO     3d2+      -0.0075    0.0000    0.0000   -0.0387    0.0000    0.0253    0.0000    0.0000    0.0000    0.0227
       75 MO     4d2+       0.1398   -0.0000   -0.0000    0.6966   -0.0000   -0.3587   -0.0000   -0.0000   -0.0000   -0.2535
       76 MO     5d2+       0.0898   -0.0000   -0.0000    0.4690   -0.0000   -0.2721   -0.0000   -0.0000    0.0000    0.1202
       77 MO     6d2+       0.0350   -0.0000   -0.0000    0.1917   -0.0000   -0.1196   -0.0000   -0.0000    0.0000    0.4709
       78 MO     7d2+       0.0131   -0.0000   -0.0000    0.0751   -0.0000   -0.0513   -0.0000   -0.0000    0.0000    0.5528
       79 MO     8d2+      -0.0049    0.0000    0.0000   -0.0237    0.0000    0.0119    0.0000   -0.0000    0.0000    0.3497
       80 MO     9d2+      -0.0035    0.0000    0.0000   -0.0200    0.0000    0.0121    0.0000   -0.0000    0.0000    0.1184
       81 MO    10d2+      -0.0019    0.0000    0.0000   -0.0098    0.0000    0.0067    0.0000    0.0000    0.0000    0.0045
       82 MO    11d2+       0.0001   -0.0000   -0.0000    0.0000   -0.0000   -0.0001   -0.0000   -0.0000   -0.0000   -0.0002
       83 MO     4f3-      -0.0000   -0.0000    0.0000   -0.0000   -0.0000    0.0000   -0.0000   -0.0000   -0.0000    0.0000
       84 MO     5f3-       0.0000    0.0000    0.0000    0.0000   -0.0000   -0.0000    0.0000    0.0000    0.0000   -0.0000
       85 MO     6f3-       0.0000   -0.0000    0.0000    0.0000   -0.0000   -0.0000    0.0000   -0.0000    0.0000   -0.0000
       86 MO     7f3-       0.0000   -0.0000   -0.0000    0.0000   -0.0000   -0.0000    0.0000    0.0000    0.0000   -0.0000
       87 MO     8f3-      -0.0000    0.0000   -0.0000   -0.0000   -0.0000    0.0000   -0.0000    0.0000   -0.0000    0.0000
       88 MO     9f3-      -0.0000    0.0000    0.0000    0.0000    0.0000   -0.0000    0.0000   -0.0000   -0.0000    0.0000
       89 MO     4f2-      -0.0000    0.0000    0.0004    0.0000   -0.0000    0.0000   -0.0005    0.0000   -0.0003    0.0000
       90 MO     5f2-      -0.0000   -0.0000    0.0000    0.0000    0.0000   -0.0000    0.0000    0.0000    0.0002   -0.0000
       91 MO     6f2-      -0.0000   -0.0000    0.0003    0.0000    0.0000   -0.0000    0.0006   -0.0000   -0.0000    0.0000
       92 MO     7f2-       0.0000   -0.0000   -0.0002   -0.0000    0.0000    0.0000   -0.0001   -0.0000    0.0002   -0.0000
       93 MO     8f2-       0.0000    0.0000   -0.0001   -0.0000   -0.0000    0.0000   -0.0002    0.0000    0.0000   -0.0000
       94 MO     9f2-      -0.0000   -0.0000    0.0011    0.0000    0.0000   -0.0000    0.0016    0.0000   -0.0007    0.0000
       95 MO     4f1-      -0.0000   -0.0000   -0.0004   -0.0000   -0.0000   -0.0000    0.0005   -0.0000    0.0003   -0.0000
       96 MO     5f1-       0.0000    0.0000    0.0000    0.0000    0.0000    0.0000   -0.0002    0.0000   -0.0001    0.0000
       97 MO     6f1-       0.0000    0.0000   -0.0000   -0.0000    0.0000    0.0000   -0.0000    0.0000    0.0000   -0.0000
       98 MO     7f1-       0.0000    0.0000    0.0001    0.0000    0.0000    0.0000   -0.0002    0.0000   -0.0000    0.0000
       99 MO     8f1-      -0.0000    0.0000    0.0000    0.0000   -0.0000    0.0000   -0.0000    0.0000   -0.0001    0.0000
      100 MO     9f1-       0.0000   -0.0000   -0.0005   -0.0000    0.0000   -0.0000    0.0005   -0.0000    0.0003   -0.0000
      101 MO     4f0        0.0000    0.0002   -0.0000    0.0000    0.0010   -0.0000    0.0000   -0.0002    0.0000    0.0000
      102 MO     5f0        0.0000    0.0005    0.0000    0.0000   -0.0005    0.0000   -0.0000    0.0007   -0.0000   -0.0000
      103 MO     6f0       -0.0000    0.0004    0.0000    0.0000   -0.0007    0.0000   -0.0000    0.0001   -0.0000   -0.0000
      104 MO     7f0       -0.0000    0.0003    0.0000    0.0000   -0.0004    0.0000   -0.0000    0.0001   -0.0000   -0.0000
      105 MO     8f0        0.0000   -0.0002   -0.0000   -0.0000    0.0002   -0.0000    0.0000    0.0001    0.0000    0.0000
      106 MO     9f0       -0.0000    0.0003    0.0000   -0.0000   -0.0003   -0.0000   -0.0000   -0.0006    0.0000    0.0000
      107 MO     4f1+      -0.0002   -0.0000   -0.0000    0.0004    0.0000    0.0005    0.0000   -0.0000   -0.0000   -0.0003
      108 MO     5f1+       0.0005    0.0000    0.0000   -0.0000    0.0000   -0.0002   -0.0000    0.0000    0.0000    0.0001
      109 MO     6f1+       0.0005    0.0000   -0.0000    0.0000    0.0000   -0.0000   -0.0000    0.0000   -0.0000   -0.0000
      110 MO     7f1+       0.0004    0.0000    0.0000   -0.0001   -0.0000   -0.0002   -0.0000    0.0000    0.0000    0.0000
      111 MO     8f1+      -0.0002   -0.0000    0.0000   -0.0000   -0.0000   -0.0000   -0.0000   -0.0000    0.0000    0.0001
      112 MO     9f1+       0.0000   -0.0000   -0.0000    0.0005    0.0000    0.0005    0.0000   -0.0000   -0.0000   -0.0003
      113 MO     4f2+       0.0003   -0.0000   -0.0000    0.0004    0.0000    0.0005    0.0000    0.0000   -0.0000   -0.0003
      114 MO     5f2+       0.0001    0.0000   -0.0000    0.0000   -0.0000   -0.0000   -0.0000   -0.0000    0.0000    0.0002
      115 MO     6f2+       0.0001    0.0000   -0.0000    0.0003   -0.0000   -0.0006   -0.0000   -0.0000   -0.0000   -0.0000
      116 MO     7f2+      -0.0000    0.0000    0.0000   -0.0002    0.0000    0.0001    0.0000   -0.0000    0.0000    0.0002
      117 MO     8f2+      -0.0000    0.0000    0.0000   -0.0001    0.0000    0.0002    0.0000    0.0000    0.0000    0.0000
      118 MO     9f2+       0.0002   -0.0000   -0.0000    0.0011   -0.0000   -0.0016   -0.0000    0.0000   -0.0000   -0.0007
      119 MO     4f3+       0.0000    0.0003    0.0000    0.0000   -0.0003    0.0000    0.0000   -0.0001   -0.0000   -0.0000
      120 MO     5f3+       0.0000    0.0001   -0.0000    0.0000    0.0002   -0.0000   -0.0000    0.0005    0.0000    0.0000
      121 MO     6f3+       0.0000   -0.0000   -0.0000    0.0000    0.0004   -0.0000   -0.0000    0.0001    0.0000    0.0000
      122 MO     7f3+       0.0000    0.0001   -0.0000    0.0000    0.0000    0.0000   -0.0000    0.0001    0.0000    0.0000
      123 MO     8f3+      -0.0000    0.0000    0.0000   -0.0000   -0.0001    0.0000    0.0000    0.0001   -0.0000   -0.0000
      124 MO     9f3+       0.0000   -0.0002   -0.0000    0.0000    0.0007   -0.0000   -0.0000   -0.0004   -0.0000   -0.0000
      125 MO     5g4-       0.0000    0.0000   -0.0000   -0.0000    0.0000   -0.0000    0.0000   -0.0000    0.0000   -0.0000
      126 MO     6g4-       0.0000    0.0000   -0.0000   -0.0000    0.0000   -0.0000    0.0001   -0.0000    0.0000   -0.0000
      127 MO     7g4-       0.0000    0.0000    0.0000    0.0000   -0.0000   -0.0000    0.0000    0.0000   -0.0000    0.0000
      128 MO     8g4-       0.0000   -0.0000   -0.0000   -0.0000    0.0000   -0.0000    0.0001   -0.0000    0.0000   -0.0000
      129 MO     5g3-       0.0000    0.0000   -0.0000    0.0000    0.0000    0.0000   -0.0000   -0.0000    0.0000   -0.0000
      130 MO     6g3-       0.0000    0.0000   -0.0000    0.0000   -0.0000    0.0000   -0.0000    0.0000    0.0000   -0.0000
      131 MO     7g3-       0.0000    0.0000   -0.0000    0.0000    0.0000    0.0000   -0.0000   -0.0000    0.0000   -0.0000
      132 MO     8g3-       0.0000   -0.0000   -0.0000   -0.0000   -0.0000    0.0000   -0.0000    0.0000    0.0000   -0.0000
      133 MO     5g2-       0.0000    0.0000   -0.0003   -0.0000    0.0000    0.0000   -0.0001    0.0000    0.0001   -0.0000
      134 MO     6g2-       0.0000    0.0000   -0.0002   -0.0000    0.0000    0.0000   -0.0001   -0.0000    0.0001   -0.0000
      135 MO     7g2-       0.0000    0.0000   -0.0001   -0.0000    0.0000    0.0000   -0.0000   -0.0000    0.0000   -0.0000
      136 MO     8g2-       0.0000    0.0000   -0.0001   -0.0000    0.0000    0.0000   -0.0001    0.0000    0.0000   -0.0000
      137 MO     5g1-       0.0000    0.0000    0.0002    0.0000   -0.0000    0.0000   -0.0003   -0.0000   -0.0001    0.0000
      138 MO     6g1-       0.0000    0.0000    0.0002    0.0000   -0.0000    0.0000   -0.0001    0.0000   -0.0001    0.0000
      139 MO     7g1-       0.0000    0.0000    0.0001    0.0000   -0.0000    0.0000   -0.0001   -0.0000   -0.0000    0.0000
      140 MO     8g1-       0.0000    0.0000    0.0001    0.0000   -0.0000    0.0000   -0.0000    0.0000   -0.0000    0.0000
      141 MO     5g0       -0.0000    0.0001   -0.0000    0.0000   -0.0005    0.0000    0.0000    0.0000   -0.0000   -0.0000
      142 MO     6g0       -0.0000    0.0003   -0.0000    0.0000   -0.0004    0.0000    0.0000   -0.0000   -0.0000    0.0000
      143 MO     7g0       -0.0000    0.0002   -0.0000    0.0000   -0.0002    0.0000    0.0000   -0.0000   -0.0000    0.0000
      144 MO     8g0       -0.0000    0.0001   -0.0000    0.0000   -0.0003    0.0000    0.0000   -0.0000   -0.0000   -0.0000
      145 MO     5g1+       0.0003    0.0000    0.0000   -0.0002   -0.0000   -0.0003   -0.0000   -0.0000    0.0000    0.0001
[...]
         2   14       2.54028205E-02  6.49244824E-04  2.84195688E-14  1.20436479E+07  1.20436479E+07
         2   16       8.49635716E-02  4.17732459E+07  3.53037529E-06  2.10444829E-03  4.17732459E+07
         2   18       8.49638303E-02  3.53080626E-06  4.17733879E+07  2.28651410E-15  4.17733879E+07
         3    7       4.96809188E-03  1.55741024E+03  4.73811711E-04  4.72105133E+02  2.02951585E+03
         3    9       3.81241548E-03  4.73811240E-04  1.55741166E+03  1.59962474E-04  1.55741229E+03
         3   11       2.51875537E-03  4.33599690E-07  1.86191343E+03  1.80540611E-15  1.86191343E+03
         3   13       4.69960039E-03  5.79645477E-06  2.48935530E+04  7.19591236E-16  2.48935530E+04
         3   15       3.40399455E-03  5.56365853E-06  2.48324248E+04  1.62456733E-05  2.48324248E+04
         3   17       1.26136659E-02  2.48328172E+04  5.56415398E-06  6.71851985E+04  9.20180156E+04
         4    8       4.96809188E-03  1.55741024E+03  4.73811711E-04  4.72105133E+02  2.02951585E+03
         4   10       3.81241548E-03  4.73811240E-04  1.55741166E+03  1.59962474E-04  1.55741229E+03
         4   12       2.51875537E-03  4.33599690E-07  1.86191343E+03  1.80540611E-15  1.86191343E+03
         4   14       4.69960039E-03  5.79645477E-06  2.48935530E+04  7.19591236E-16  2.48935530E+04
         4   16       3.40399455E-03  5.56365853E-06  2.48324248E+04  1.62456733E-05  2.48324248E+04
         4   18       1.26136659E-02  2.48328172E+04  5.56415398E-06  6.71851985E+04  9.20180156E+04
         5    7       3.81239154E-03  4.73813013E-04  1.55738318E+03  1.59954100E-04  1.55738382E+03
         5    9       4.96811305E-03  1.55742243E+03  4.73803404E-04  4.72082338E+02  2.02950524E+03
         5   11       2.51864138E-03  1.86181430E+03  4.33468342E-07  1.58097320E-07  1.86181430E+03
         5   13       4.69971313E-03  2.48940760E+04  5.79638456E-06  2.66201262E-06  2.48940760E+04
         5   15       1.26136195E-02  2.48321836E+04  5.56400715E-06  6.71849916E+04  9.20171752E+04
         5   17       3.40409054E-03  5.56420747E-06  2.48331344E+04  1.62453672E-05  2.48331344E+04
         6    8       3.81239154E-03  4.73813013E-04  1.55738318E+03  1.59954100E-04  1.55738382E+03
         6   10       4.96811305E-03  1.55742243E+03  4.73803404E-04  4.72082338E+02  2.02950524E+03
         6   12       2.51864138E-03  1.86181430E+03  4.33468342E-07  1.58097320E-07  1.86181430E+03
         6   14       4.69971313E-03  2.48940760E+04  5.79638456E-06  2.66201262E-06  2.48940760E+04
         6   16       1.26136195E-02  2.48321836E+04  5.56400715E-06  6.71849916E+04  9.20171752E+04
         6   18       3.40409054E-03  5.56420747E-06  2.48331344E+04  1.62453672E-05  2.48331344E+04
         7   11       4.59125583E-04  7.18044292E-06  2.23492974E+01  3.70737353E-16  2.23493046E+01
         7   13       3.26293621E-04  2.89704638E-04  9.01695654E+02  6.19253254E-13  9.01695944E+02
         7   15       2.38512271E-03  3.26094715E-03  1.01391318E+04  1.38621545E-03  1.01391364E+04
         7   17       3.40111591E-03  1.01393015E+04  3.26114394E-03  4.31886539E+03  1.44581701E+04
         8   12       4.59125583E-04  7.18044292E-06  2.23492974E+01  3.70737353E-16  2.23493046E+01
         8   14       3.26293621E-04  2.89704638E-04  9.01695654E+02  6.19253254E-13  9.01695944E+02
         8   16       2.38512271E-03  3.26094715E-03  1.01391318E+04  1.38621545E-03  1.01391364E+04
         8   18       3.40111591E-03  1.01393015E+04  3.26114394E-03  4.31886539E+03  1.44581701E+04
         9   11       4.59106538E-04  2.23482889E+01  7.18070041E-06  1.64568078E-09  2.23482960E+01
         9   13       3.26285462E-04  9.01672666E+02  2.89710842E-04  3.22222428E-06  9.01672959E+02
         9   15       3.40103138E-03  1.01388785E+04  3.26100276E-03  4.31886813E+03  1.44577499E+04
         9   17       2.38523599E-03  3.26105765E-03  1.01396481E+04  1.38620926E-03  1.01396528E+04
        10   12       4.59106538E-04  2.23482889E+01  7.18070041E-06  1.64568078E-09  2.23482960E+01
        10   14       3.26285462E-04  9.01672666E+02  2.89710842E-04  3.22222428E-06  9.01672959E+02
        10   16       3.40103138E-03  1.01388785E+04  3.26100276E-03  4.31886813E+03  1.44577499E+04
        10   18       2.38523599E-03  3.26105765E-03  1.01396481E+04  1.38620926E-03  1.01396528E+04
        11   13       1.47141063E-02  5.85624729E-07  1.12474501E-15  3.05846012E+04  3.05846012E+04
        11   15       8.81768753E-03  2.98908941E+04  2.51682869E-09  2.21249547E-06  2.98908941E+04
        11   17       8.81743365E-03  2.53578588E-09  2.98901614E+04  2.90632649E-15  2.98901614E+04
        12   14       1.47141063E-02  5.85624729E-07  1.12474501E-15  3.05846012E+04  3.05846012E+04
        12   16       8.81768753E-03  2.98908941E+04  2.51682869E-09  2.21249547E-06  2.98908941E+04
        12   18       8.81743365E-03  2.53578588E-09  2.98901614E+04  2.90632649E-15  2.98901614E+04
        13   15       8.55293194E-04  1.36457619E+02  1.15259829E-11  4.87913044E-08  1.36457619E+02
        13   17       8.55282136E-04  1.15403659E-11  1.36458548E+02  8.39301413E-19  1.36458548E+02
        14   16       8.55293194E-04  1.36457619E+02  1.15259829E-11  4.87913044E-08  1.36457619E+02
        14   18       8.55282136E-04  1.15403659E-11  1.36458548E+02  8.39301413E-19  1.36458548E+02
     -----------------------------------------------------------------------------------------------
--

++ Velocity transition strengths (SO states):
   ------------------------------------------
    for osc. strength at least    1.0000000000000001E-005

      From   To        Osc. strength     Einstein coefficients Ax, Ay, Az (sec-1)    Total A (sec-1)
     -----------------------------------------------------------------------------------------------
         1    3       2.96028596E-01  2.61365684E-02  1.12247780E+08  9.98724609E-13  1.12247780E+08
         1    5       2.96028717E-01  1.12247866E+08  2.61364904E-02  1.26240799E-04  1.12247866E+08
         1    7       5.19223763E-04  6.74948684E-02  2.10015058E+05  2.37355336E-09  2.10015126E+05
         1    9       5.19350419E-04  2.10066285E+05  6.74766924E-02  1.17570562E-02  2.10066364E+05
         1   11       3.66038714E-01  3.15205057E-04  3.55371430E-14  1.51321222E+08  1.51321222E+08
         1   13       2.29693065E-02  6.01637907E-04  2.40308973E-14  1.08899404E+07  1.08899404E+07
         1   15       7.87547197E-02  3.87207323E+07  3.27242636E-06  1.92578845E-03  3.87207323E+07
         1   17       7.87549603E-02  3.27283200E-06  3.87208643E+07  7.60194198E-15  3.87208643E+07
         2    4       2.96028596E-01  2.61365684E-02  1.12247780E+08  9.98724609E-13  1.12247780E+08
         2    6       2.96028717E-01  1.12247866E+08  2.61364904E-02  1.26240799E-04  1.12247866E+08
         2    8       5.19223763E-04  6.74948684E-02  2.10015058E+05  2.37355336E-09  2.10015126E+05
         2   10       5.19350419E-04  2.10066285E+05  6.74766924E-02  1.17570562E-02  2.10066364E+05
         2   12       3.66038714E-01  3.15205057E-04  3.55371430E-14  1.51321222E+08  1.51321222E+08
         2   14       2.29693065E-02  6.01637907E-04  2.40308973E-14  1.08899404E+07  1.08899404E+07
         2   16       7.87547197E-02  3.87207323E+07  3.27242636E-06  1.92578845E-03  3.87207323E+07
         2   18       7.87549603E-02  3.27283200E-06  3.87208643E+07  7.60194198E-15  3.87208643E+07
         3    7       8.04135390E-02  2.43870741E+04  7.41934940E-03  8.46277771E+03  3.28498593E+04
         3    9       5.96979406E-02  7.41928036E-03  2.43873185E+04  2.86742305E-03  2.43873288E+04
         3   13       1.74753373E-02  2.15541241E-05  9.25663275E+04  3.87563903E-15  9.25663275E+04
         3   15       1.21822075E-02  1.99113904E-05  8.88705314E+04  6.23993662E-05  8.88705315E+04
         3   17       4.75562271E-02  8.88712664E+04  1.99124844E-05  2.58057605E+05  3.46928871E+05
         4    8       8.04135390E-02  2.43870741E+04  7.41934940E-03  8.46277771E+03  3.28498593E+04
         4   10       5.96979406E-02  7.41928036E-03  2.43873185E+04  2.86742305E-03  2.43873288E+04
         4   14       1.74753373E-02  2.15541241E-05  9.25663275E+04  3.87563903E-15  9.25663275E+04
         4   16       1.21822075E-02  1.99113904E-05  8.88705314E+04  6.23993662E-05  8.88705315E+04
         4   18       4.75562271E-02  8.88712664E+04  1.99124844E-05  2.58057605E+05  3.46928871E+05
         5    7       5.96975359E-02  7.41927118E-03  2.43868604E+04  2.86734271E-03  2.43868707E+04
         5    9       8.04136925E-02  2.43870582E+04  7.41921407E-03  8.46254476E+03  3.28496103E+04
         5   13       1.74758136E-02  9.25685740E+04  2.15538808E-05  1.12243069E-05  9.25685741E+04
         5   15       4.75560703E-02  8.88680006E+04  1.99120528E-05  2.58057833E+05  3.46925833E+05
         5   17       1.21823409E-02  1.99124354E-05  8.88715374E+04  6.23991444E-05  8.88715375E+04
         6    8       5.96975359E-02  7.41927118E-03  2.43868604E+04  2.86734271E-03  2.43868707E+04
         6   10       8.04136925E-02  2.43870582E+04  7.41921407E-03  8.46254476E+03  3.28496103E+04
         6   14       1.74758136E-02  9.25685740E+04  2.15538808E-05  1.12243069E-05  9.25685741E+04
         6   16       4.75560703E-02  8.88680006E+04  1.99120528E-05  2.58057833E+05  3.46925833E+05
         6   18       1.21823409E-02  1.99124354E-05  8.88715374E+04  6.23991444E-05  8.88715375E+04
         7   11       2.85774365E-02  4.46937603E-04  1.39109619E+03  4.12413225E-16  1.39109663E+03
         7   13       8.50723838E-05  7.55472996E-05  2.35093978E+02  3.79789156E-12  2.35094054E+02
         7   15       2.35304075E-05  3.21461791E-05  1.00027649E+02  2.29419013E-04  1.00027910E+02
         7   17       1.91649095E-04  1.00033165E+02  3.21846900E-05  7.14671426E+02  8.14704623E+02
         8   12       2.85774365E-02  4.46937603E-04  1.39109619E+03  4.12413225E-16  1.39109663E+03
         8   14       8.50723838E-05  7.55472996E-05  2.35093978E+02  3.79789156E-12  2.35094054E+02
         8   16       2.35304075E-05  3.21461791E-05  1.00027649E+02  2.29419013E-04  1.00027910E+02
         8   18       1.91649095E-04  1.00033165E+02  3.21846900E-05  7.14671426E+02  8.14704623E+02
         9   11       2.85765028E-02  1.39104567E+03  4.46952948E-04  4.55380700E-09  1.39104611E+03
         9   13       8.50849791E-05  2.35128653E+02  7.55343539E-05  1.81239505E-05  2.35128746E+02
         9   15       1.91649140E-04  9.99374336E+01  3.21716339E-05  7.14763914E+02  8.14701380E+02
         9   17       2.35439369E-05  3.21733609E-05  1.00085506E+02  2.29384765E-04  1.00085768E+02
        10   12       2.85765028E-02  1.39104567E+03  4.46952948E-04  4.55380700E-09  1.39104611E+03
        10   14       8.50849791E-05  2.35128653E+02  7.55343539E-05  1.81239505E-05  2.35128746E+02
        10   16       1.91649140E-04  9.99374336E+01  3.21716339E-05  7.14763914E+02  8.14701380E+02
        10   18       2.35439369E-05  3.21733609E-05  1.00085506E+02  2.29384765E-04  1.00085768E+02
        11   13       8.65234665E-02  4.36096951E-06  3.14863112E-16  1.79847479E+05  1.79847479E+05
        11   15       3.88867375E-02  1.31821795E+05  1.11358239E-08  1.42148725E-05  1.31821795E+05
        11   17       3.88862949E-02  1.11475592E-08  1.31820859E+05  2.28900413E-16  1.31820859E+05
        12   14       8.65234665E-02  4.36096951E-06  3.14863112E-16  1.79847479E+05  1.79847479E+05
        12   16       3.88867375E-02  1.31821795E+05  1.11358239E-08  1.42148725E-05  1.31821795E+05
        12   18       3.88862949E-02  1.11475592E-08  1.31820859E+05  2.28900413E-16  1.31820859E+05
        13   15       1.65284977E-04  2.63704576E+01  2.22102453E-12  4.97536479E-09  2.63704576E+01
        13   17       1.65287529E-04  2.24062067E-12  2.63713852E+01  2.23877804E-17  2.63713852E+01
        14   16       1.65284977E-04  2.63704576E+01  2.22102453E-12  4.97536479E-09  2.63704576E+01
        14   18       1.65287529E-04  2.24062067E-12  2.63713852E+01  2.23877804E-17  2.63713852E+01
     -----------------------------------------------------------------------------------------------
--

++ Length and velocity gauge comparison (SO states):

 --------------------------------------------------
 A comparison between the dipole oscillator strengths in 
 length and velocity gauge will be performed

 All dipole oscillator differences above the tolerance of   0.10000000000000001       will be printed 

 Due to basis set deficiency these oscillator may be problematic 

 The tolerance is defined as ABS(1-O_l/O_v) 
 O_l : dipole oscillator strength in length gauge
 O_p : dipole oscillator strength in velocity gauge
 --------------------------------------------------

  Problematic transitions have been found

      From   To       Difference (%) Osc. st. (len.) Osc. st. (vel.)
     ---------------------------------------------------------------
         1   13            10.594634  2.54028205E-02  2.29693065E-02
         2   14            10.594634  2.54028205E-02  2.29693065E-02
         3    7            93.821822  4.96809188E-03  8.04135390E-02
         3    9            93.613824  3.81241548E-03  5.96979406E-02
         3   11      ---------------  2.51875537E-03 below threshold
         3   13            73.107241  4.69960039E-03  1.74753373E-02
         3   15            72.057654  3.40399455E-03  1.21822075E-02
         3   17            73.476311  1.26136659E-02  4.75562271E-02
         4    8            93.821822  4.96809188E-03  8.04135390E-02
         4   10            93.613824  3.81241548E-03  5.96979406E-02
         4   12      ---------------  2.51875537E-03 below threshold
         4   14            73.107241  4.69960039E-03  1.74753373E-02
         4   16            72.057654  3.40399455E-03  1.21822075E-02
         4   18            73.476311  1.26136659E-02  4.75562271E-02
         5    7            93.613821  3.81239154E-03  5.96975359E-02
         5    9            93.821807  4.96811305E-03  8.04136925E-02
         5   11      ---------------  2.51864138E-03 below threshold
         5   13            73.107329  4.69971313E-03  1.74758136E-02
         5   15            73.476321  1.26136195E-02  4.75560703E-02
         5   17            72.057172  3.40409054E-03  1.21823409E-02
         6    8            93.613821  3.81239154E-03  5.96975359E-02
         6   10            93.821807  4.96811305E-03  8.04136925E-02
         6   12      ---------------  2.51864138E-03 below threshold
         6   14            73.107329  4.69971313E-03  1.74758136E-02
         6   16            73.476321  1.26136195E-02  4.75560703E-02
         6   18            72.057172  3.40409054E-03  1.21823409E-02
         7   11            98.393398  4.59125583E-04  2.85774365E-02
         7   13           283.548229  3.26293621E-04  8.50723838E-05
         7   15         10036.342590  2.38512271E-03  2.35304075E-05
         7   17          1674.657954  3.40111591E-03  1.91649095E-04
         8   12            98.393398  4.59125583E-04  2.85774365E-02
         8   14           283.548229  3.26293621E-04  8.50723838E-05
         8   16         10036.342590  2.38512271E-03  2.35304075E-05
         8   18          1674.657954  3.40111591E-03  1.91649095E-04
         9   11            98.393412  4.59106538E-04  2.85765028E-02
         9   13           283.481862  3.26285462E-04  8.50849791E-05
         9   15          1674.613438  3.40103138E-03  1.91649140E-04
         9   17         10030.998893  2.38523599E-03  2.35439369E-05
        10   12            98.393412  4.59106538E-04  2.85765028E-02
        10   14           283.481862  3.26285462E-04  8.50849791E-05
        10   16          1674.613438  3.40103138E-03  1.91649140E-04
        10   18         10030.998893  2.38523599E-03  2.35439369E-05
        11   13            82.994086  1.47141063E-02  8.65234665E-02
        11   15            77.324692  8.81768753E-03  3.88867375E-02
        11   17            77.325087  8.81743365E-03  3.88862949E-02
        12   14            82.994086  1.47141063E-02  8.65234665E-02
        12   16            77.324692  8.81768753E-03  3.88867375E-02
        12   18            77.325087  8.81743365E-03  3.88862949E-02
        13   15           417.465779  8.55293194E-04  1.65284977E-04
        13   17           417.451099  8.55282136E-04  1.65287529E-04
        14   16           417.465779  8.55293194E-04  1.65284977E-04
        14   18           417.451099  8.55282136E-04  1.65287529E-04
     ---------------------------------------------------------------

 Number of problematic transitions =                    52

--

 Electric-dipole - electric-octupole not included
++ I/O STATISTICS
 
  I. General I/O information
  - - - - - - - - - - - - - - - - - - - - - - - - - - - - - - - - - - - - - - - - - - -
  Unit  Name          Flsize      Write/Read            MBytes           Write/Read
                      (MBytes)       Calls              In/Out           Time, sec.
  - - - - - - - - - - - - - - - - - - - - - - - - - - - - - - - - - - - - - - - - - - -
   1  SCRATCH           0.00 .       9/      45 .      0.0/      0.0 .       0/       0
   2  ANNI              0.00 .       0/       0 .      0.0/      0.0 .       0/       0
   3  RUNFILE          14.89 .     322/   10517 .      2.3/     76.3 .       0/       0
   4  ONEINT            5.68 .       0/   24849 .      0.0/   3743.6 .       0/       0
   5  JOBIPH            6.59 .       0/      92 .      0.0/      0.8 .       0/       0
   6  ORDINT          529.03 .       1/    4233 .      0.0/   1058.0 .       0/       0
  - - - - - - - - - - - - - - - - - - - - - - - - - - - - - - - - - - - - - - - - - - -
   *  TOTAL           556.21 .     332/   39736 .      2.3/   4878.7 .       0/       0
  - - - - - - - - - - - - - - - - - - - - - - - - - - - - - - - - - - - - - - - - - - -
 
  II. I/O Access Patterns
  - - - - - - - - - - - - - - - - - - - -
  Unit  Name               % of random
                         Write/Read calls
  - - - - - - - - - - - - - - - - - - - -
   1  SCRATCH             88.9/ 100.0
   2  ANNI                 0.0/   0.0
   3  RUNFILE             28.6/  10.8
   4  ONEINT               0.0/  15.5
   5  JOBIPH               0.0/  76.1
   6  ORDINT             100.0/   0.0
  - - - - - - - - - - - - - - - - - - - -
--
--- Stop Module: rassi at Thu Jan  9 21:03:51 2025 /rc=_RC_ALL_IS_WELL_ ---
*** files: xmldump
    saved to directory /home4/s4752295/Internship/Initial_simulations/Point_charge_model/1_electron/active_space_9_non_rel/Mo/varying_bond_length
--- Module rassi spent 4 seconds ---

.##################.
.# Happy landing! #.
.##################.

    Timing: Wall=57.81 User=44.98 System=9.62

###############################################################################
Hbrk Cluster
Job 14549893 for user s4752295
Finished at: Thu Jan  9 21:03:51 CET 2025

Job details:
============

Job ID                         : 14549893
Name                           : Mo_no_c_light
User                           : s4752295
Partition                      : regularmedium
Nodes                          : node95
Number of Nodes                : 1
Cores                          : 1
Number of Tasks                : 1
State                          : RUNNING  
Submit                         : 2025-01-09T21:02:47
Start                          : 2025-01-09T21:02:48
End                            : --
Reserved walltime              : 15:00:00
Used walltime                  : 00:01:03
Used CPU time                  : -- 
% User (Computation)           : --
% System (I/O)                 : --
Total memory reserved          : 25000M
Maximum memory used            : --

Acknowledgements:
=================

Please see this page for information about acknowledging Hbrk in your publications:

https://wiki.hpc.rug.nl/habrok/introduction/scientific_output

################################################################################
