   This run of MOLCAS is using the pymolcas driver

                             OPE
                             OPE          NMOL  CASOP  ENMOLC A   SO
                 OPE        NMOLC        AS  OP EN  MO LC     AS  OP
                OPENM       OL CA        SO  PE NM  OL CA     SOP EN
                OP EN      MO   LC       AS  OP ENMOL  CASO   PENMOL
                OP  EN     MO   LC       AS  OP EN     MO     LC ASO
               OP   E  NMOL  C  AS       OP  EN MO     LC     AS  OP
               OP  E   NMO   LC AS        OPEN  MO     LCASOP EN   M
               O  PEN   MO  LCA  SO
            OPE   NMO   L   CAS    OP
        OPENMOL  CASOP     ENMOL   CASOPE
     OPENMOLCA   SOPENMOLCASOPEN   MOLCASOPE
    OPENMOLCAS   OP           EN   MOL    CAS
    OPENMOLCAS       OP  ENM        O     LCA
    OPENMOLCAS    OPEN  MOLCASO     P  E  NMO
    OPENMOLCAS     OP               E  N  MOL
    OPENMOLCA   SO           PENM   O  L  CAS    OPEN    MO    LCAS
    OPENMOLCA   SOP           ENM   O  L  CAS   OP  EN  MOLC  AS   O
    OPENMOLCA   SOPE           NM      O  LCA   S      OP  EN MO
    OPENMOLC                AS         O  PEN   M      OL  CA  SOPE
    OPENMO        LCASOPE  NMOL        C  ASO   P      ENMOLC     AS
    OPE     NMO      LCA  SO     P     E   NM   OL  CA SO  PE N   MO
          OPENMOLCA            SOPE   NMO        LCAS  O    P  ENMO
     OPENMOLCASOPENMOLCASOPENMOLCASOPENMOLCA
        OPENMOLCASOPENMOLCASOPENMOLCASOPE
            OPENMOLCASOPENMOLCASOPENM
               OPENMOLCASOPENMOLCA        version: o91e1abe7de707b ?
                   OPENMOLCASO
                       OPE                tag:

 OpenMolcas is free software; you can redistribute it and/or modify it
 under the terms of the GNU Lesser General Public License version 2.1.
 OpenMolcas is distributed in the hope that it will be useful, but it
 is provided "as is" and without any express or implied warranties.
 For more details see the full text of the license in the file
 LICENSE or in <http://www.gnu.org/licenses/>.

                 Copyright (C) The OpenMolcas Authors
           For the author list and the recommended citation,
                   consult the file CONTRIBUTORS.md

           *************************************************
           * pymolcas version py2.10                       *
           *   build 3068ae8b88c9345ec6cfef6fef7f1169      *
           *   (after the EMIL interpreter by V. Veryazov) *
           *************************************************

configuration info
------------------
Host name: login1 (Linux)
C Compiler ID: GNU
C flags: -std=gnu99
Fortran Compiler ID: GNU
Fortran flags: -fno-aggressive-loop-optimizations -cpp -fdefault-integer-8 -fmax-stack-var-size=1048576
Definitions: _MOLCAS_;_I8_;_LINUX_;_MKL_
Parallel: OFF (GA=OFF)


   ----------------------------------------------------------------------------------------------------------------------------------------------
  |
  |           Project: niobium_so_cf
  |    Submitted from: /home4/s4752295/Internship/Initial_simulations/Point_charge_model/1_electron/active_space_9_non_rel/Nb/varying_bond_length
  |      Scratch area: /tmp/niobium_so_cf
  |   Save outputs to: /home4/s4752295/Internship/Initial_simulations/Point_charge_model/1_electron/active_space_9_non_rel/Nb/varying_bond_length
  |            Molcas: /home4/s4752295/Internship/Molcas/recomp_try/OpenMolcas-master/build
  |
  | Scratch area is empty
  |
  |    MOLCAS_DRIVER = /home4/s4752295/Internship/Molcas/bin/pymolcas
  |    MOLCAS_NPROCS = 1
  |    MOLCAS_SOURCE = /home4/s4752295/Internship/Molcas/recomp_try/OpenMolcas-master
  | MOLCAS_STRUCTURE = 0
  |
   ----------------------------------------------------------------------------------------------------------------------------------------------

++ ---------   Input file   ---------

&SEWARD
AMFi

CLIG
$R

Basis Set
Nb.ANO-rcc.Roos.21s18p13d6f4g2h.10s9p8d5f4g2h.
Spherical d
Nb            0.0       0.0     0.0
End of Basis

Xfield

4
0.000000,  0.000,  3.78         -1.0
3.273576,  0.000, -1.89         -1.0
-1.636788,  2.835, -1.89        -1.0
-1.636788, -2.835, -1.89        -1.0

End of input

&SCF
Occupied
18
Iterations
   50  100
End of Input

&RASSCF
LumOrb
Symmetry
1
Spin
2
Nactel
1 0 0
CIRoot
9 9 1
inactive
18
ras2
9
Alter
4
1 19 24
1 20 25
1 21 26
1 22 27
End of Input

>>> COPY niobium_so_cf.JobIph $SLURM_SUBMIT_DIR/niobium_so_cf.doublet.JobIph

>>> COPY $SLURM_SUBMIT_DIR/niobium_so_cf.doublet.JobIph ./JOB002

&RASSI
NROFJobIph
1 All
SpinOrbit
End of Input

EOF

-- ----------------------------------

--- Start Module: seward at Thu Jan  9 00:51:16 2025 ---

()()()()()()()()()()()()()()()()()()()()()()()()()()()()()()()()()()()()()()()()()()()()()()()()()()

                                              &SEWARD

                                   only a single process is used
                       available to each process: 4.1 GB of memory, 1 thread?
                                            pid: 893274
()()()()()()()()()()()()()()()()()()()()()()()()()()()()()()()()()()()()()()()()()()()()()()()()()()

 The speed of LIGHT in this CALCULATION =   137.03599917700001     
               SEWARD will generate:
                  Multipole Moment integrals up to order  2
                  Kinetic Energy integrals
                  Nuclear Attraction integrals (point charge)
                  One-Electron Hamiltonian integrals
                  Velocity integrals
                  Relativistic Douglas-Kroll-Hess integrals:
                    - Parametrization         : EXP
                    - DKH order of Hamiltonian: 2
                    - DKH order of Properties : 0
                         - multipole moment operators
                         - electric potential operators
                         - contact operators
                  External field from     4 point(s) added to the one-electron Hamiltonian
                  Orbital angular momentum around ( 0.0000  0.0000  0.0000 )
                  Velocity quadrupole around ( 0.0000  0.0000  0.0000 )
                  Atomic mean-field integrals
                  Two-Electron Repulsion integrals

                   Integrals are discarded if absolute value <: 0.10E-13
                   Integral cutoff threshold is set to       <: 0.10E-15

++    Symmetry information:
      ---------------------

                    Character Table for C1 

                             E  
                    a        1  x, y, xy, Rz, z, xz, Ry, yz, Rx, I
--


++    Basis set information:
      ----------------------


      Basis set label: NB.ANO-RCC.ROOS.21S18P13D6F4G2H.10S9P8D5F4G2H......

      Electronic valence basis set:
      ------------------
      Associated Effective Charge  41.000000 au
      Associated Actual Charge     41.000000 au
      Nuclear Model: Point charge

      Shell  nPrim  nBasis  Cartesian Spherical Contaminant
         s      21      10        X                  
         p      18       9        X                  
         d      13       8                 X         
         f       6       5                 X         
         g       4       4                 X         
         h       2       2                 X         
--


++    Molecular structure info:
      -------------------------

                    ************************************************ 
                    **** Cartesian Coordinates / Bohr, Angstrom **** 
                    ************************************************ 

     Center  Label                x              y              z                     x              y              z
        1      NB               0.000000       0.000000       0.000000              0.000000       0.000000       0.000000
--


++    Operator info:
      --------------


  Net charge from external field:   -4.0000000000000000     
--


            Nuclear Potential Energy              0.00000000 au

                    Nuclear-External Field Potential Energy     -43.38624348 au
                    External Field Potential Energy               0.98731503 au 


            Total Nuclear Potential Energy            -43.38624348 au


      Basis set specifications :
      Symmetry species         a  
      Basis functions          170

 Sorry, Molden does not know how to handle
 functions with angular momentum larger than g
Note: The following floating-point exceptions are signalling: IEEE_UNDERFLOW_FLAG IEEE_DENORMAL
--- Stop Module: seward at Thu Jan  9 00:51:24 2025 /rc=_RC_ALL_IS_WELL_ ---
*** files: niobium_so_cf.GssOrb xmldump
    saved to directory /home4/s4752295/Internship/Initial_simulations/Point_charge_model/1_electron/active_space_9_non_rel/Nb/varying_bond_length
--- Module seward spent 8 seconds ---

*** symbolic link created: INPORB -> niobium_so_cf.GssOrb
--- Start Module: scf at Thu Jan  9 00:51:24 2025 ---

()()()()()()()()()()()()()()()()()()()()()()()()()()()()()()()()()()()()()()()()()()()()()()()()()()

                                                &SCF

                                   only a single process is used
                       available to each process: 4.1 GB of memory, 1 thread?
                                            pid: 906352
()()()()()()()()()()()()()()()()()()()()()()()()()()()()()()()()()()()()()()()()()()()()()()()()()()

++    Input section:
      --------------

      Header of the integral files:
      
       Integrals generated by seward 4.2.0  , Thu Jan  9 00:51:16 2025


      Cartesian coordinates in Angstrom:
      -----------------------------------------------------
      No.  Label        X            Y            Z        
      -----------------------------------------------------
       1   NB         0.00000000   0.00000000   0.00000000
      -----------------------------------------------------
      Nuclear repulsion energy =  -43.38624348
--

++    Orbital specifications:
      -----------------------

      Symmetry species               1
                                     a
      Frozen orbitals                0
      Occupied orbitals             18
      Secondary orbitals           152
      Deleted orbitals               0
      Total number of orbitals     170
      Number of basis functions    170
--

      Molecular charge                           5.000

++    Optimization specifications:
      ----------------------------

      SCF Algorithm: Conventional
      Minimized density differences are used
      Number of density matrices in core                5
      Maximum number of NDDO SCF iterations            50
      Maximum number of HF SCF iterations             100
      Threshold for SCF energy change            0.10E-08
      Threshold for density matrix               0.10E-03
      Threshold for Fock matrix                  0.15E-03
      Threshold for linear dependence            0.10E-08
      Threshold at which DIIS is turned on       0.15E+00
      Threshold at which QNR/C2DIIS is turned on 0.75E-01
      Threshold for Norm(delta) (QNR/C2DIIS)     0.20E-04
      DIIS extrapolation of the SCF procedure
      All orbitals punched on: SCFORB
--

      Detected guessorb starting orbitals                                             


++ Convergence information
                                   SCF        iterations: Energy and convergence statistics

Iter     Tot. SCF        One-elec.       Two-elec.     Energy      Max Dij or  Max Fij      DNorm      TNorm      AccCon     Time
         Energy          Energy          Energy        Change      Delta Norm                                                in Sec.

 The total and one-electron energies are shifted by a value of      3000. a.u.

   1  -817.193057826 -2129.211250394  1355.404436053   0.00E+00    0.14E+00*   0.14E+00*    0.85E+01   0.49E+03   None         1.
   2  -817.334215369 -2142.358648051  1368.410676167  -0.14E+00*   0.96E-02*   0.38E-01*    0.64E+00   0.49E+03   EDIIS        1.
   3  -817.338390346 -2138.974777994  1365.022631133  -0.42E-02*   0.33E-02*   0.21E-01*    0.74E-01   0.49E+03   EDIIS        1.
   4  -817.339018997 -2140.472590751  1366.519815238  -0.63E-03*   0.63E-03*   0.63E-02*    0.12E-01   0.49E+03   c2DIIS       1.
   5  -817.339162534 -2140.029404282  1366.076485232  -0.14E-03*   0.20E-03*   0.26E-03*    0.14E-02   0.49E+03   QNRc2DIIS    1.
   6  -817.339162758 -2140.025432376  1366.072513102  -0.22E-06*   0.10E-03*   0.66E-04     0.31E-03   0.49E+03   QNRc2DIIS    1.
   7  -817.339162784 -2140.027826283  1366.074906983  -0.26E-07*   0.80E-05    0.19E-04     0.33E-04   0.49E+03   QNRc2DIIS    1.
   8  -817.339162785 -2140.026741188  1366.073821887  -0.81E-09    0.13E-05    0.26E-05     0.40E-04   0.49E+03   QNRc2DIIS    1.

       Convergence after  8 Macro Iterations
--

 *****************************************************************************************************************************
 *                                                                                                                           *
 *                                             SCF/KS-DFT Program, Final results                                             *
 *                                                                                                                           *
 *                                                                                                                           *
 *                                                                                                                           *
 *                                                       Final Results                                                       *
 *                                                                                                                           *
 *****************************************************************************************************************************

::    Total SCF energy                              -3817.3391627853
      One-electron energy                           -5140.0267411880
      Two-electron energy                            1366.0738218870
      Nuclear repulsion energy                        -43.3862434843
      Kinetic energy (interpolated)                  4199.9967471115
      Virial theorem                                    0.9088909808
      Total spin, S(S+1)                                0.0000000000
      Total spin, S                                     0.0000000000
      Max non-diagonal density matrix element           0.0000011463
      Max non-diagonal Fock matrix element              0.0000007645


      All orbitals with orbital energies smaller than  E(LUMO)+0.5 are printed

++    Molecular orbitals:
      -------------------

      Title: SCF orbitals

      Molecular orbitals for symmetry species 1: a  

          Orbital            1         2         3         4         5         6         7         8         9        10    
          Energy         -702.5475 -102.1473  -91.1614  -91.1614  -91.1613  -19.3081  -15.6065  -15.6065  -15.6058   -9.5332
          Occ. No.          2.0000    2.0000    2.0000    2.0000    2.0000    2.0000    2.0000    2.0000    2.0000    2.0000

        1 NB     1s         1.0000   -0.0000    0.0000   -0.0000   -0.0000    0.0000    0.0000   -0.0000    0.0000    0.0000
        2 NB     2s         0.0000    1.0000    0.0000   -0.0000   -0.0000    0.0001   -0.0000    0.0000   -0.0000   -0.0000
        3 NB     3s        -0.0000   -0.0001   -0.0000    0.0000    0.0000    1.0000   -0.0000    0.0000   -0.0004   -0.0000
        4 NB     4s         0.0000    0.0000    0.0000   -0.0000   -0.0000   -0.0010    0.0000   -0.0000    0.0001    0.0000
        5 NB     5s        -0.0000    0.0000    0.0000    0.0000    0.0000    0.0001   -0.0000   -0.0000   -0.0000    0.0000
        6 NB     6s         0.0000    0.0000    0.0000    0.0000   -0.0000   -0.0001    0.0000   -0.0000    0.0000   -0.0000
        7 NB     7s        -0.0000   -0.0000    0.0000    0.0000    0.0000    0.0003   -0.0000    0.0000   -0.0000   -0.0000
        8 NB     8s         0.0000    0.0000    0.0000   -0.0000   -0.0000   -0.0003   -0.0000   -0.0000    0.0000    0.0000
        9 NB     9s        -0.0000   -0.0000   -0.0000   -0.0000    0.0000    0.0003   -0.0000    0.0000   -0.0000    0.0000
       10 NB    10s         0.0000    0.0000    0.0000   -0.0000   -0.0000   -0.0002    0.0000   -0.0000    0.0000    0.0000
       11 NB     2px       -0.0000   -0.0000   -0.0042    1.0000   -0.0000    0.0000   -0.0000    0.0001   -0.0000   -0.0000
       12 NB     3px        0.0000   -0.0000    0.0000   -0.0001    0.0000   -0.0000   -0.6844    0.7291   -0.0000    0.0000
       13 NB     4px       -0.0000    0.0000   -0.0000    0.0000   -0.0000   -0.0000    0.0010   -0.0010    0.0000   -0.0000
       14 NB     5px        0.0000   -0.0000    0.0000   -0.0000    0.0000    0.0000   -0.0002    0.0002   -0.0000   -0.0000
       15 NB     6px       -0.0000    0.0000   -0.0000    0.0000   -0.0000   -0.0000    0.0003   -0.0004    0.0000    0.0000
       16 NB     7px        0.0000   -0.0000    0.0000   -0.0000    0.0000    0.0000   -0.0002    0.0003   -0.0000   -0.0000
       17 NB     8px       -0.0000    0.0000   -0.0000    0.0000   -0.0000   -0.0000    0.0002   -0.0003    0.0000    0.0000
       18 NB     9px        0.0000   -0.0000    0.0000   -0.0000    0.0000    0.0000   -0.0002    0.0002   -0.0000   -0.0000
       19 NB    10px       -0.0000    0.0000   -0.0000    0.0000   -0.0000   -0.0000    0.0001   -0.0001    0.0000    0.0000
       20 NB     2py        0.0000    0.0000    1.0000    0.0042    0.0000    0.0000    0.0001    0.0000    0.0000    0.0000
       21 NB     3py       -0.0000   -0.0000   -0.0001   -0.0000   -0.0000    0.0000    0.7291    0.6844    0.0000   -0.0000
       22 NB     4py        0.0000    0.0000    0.0000    0.0000    0.0000   -0.0000   -0.0010   -0.0010   -0.0000    0.0000
       23 NB     5py       -0.0000   -0.0000   -0.0000   -0.0000   -0.0000    0.0000    0.0002    0.0002    0.0000    0.0000
       24 NB     6py        0.0000    0.0000    0.0000    0.0000    0.0000   -0.0000   -0.0004   -0.0003   -0.0000   -0.0000
       25 NB     7py       -0.0000   -0.0000   -0.0000   -0.0000   -0.0000    0.0000    0.0003    0.0002    0.0000    0.0000
       26 NB     8py        0.0000    0.0000    0.0000    0.0000    0.0000   -0.0000   -0.0003   -0.0002   -0.0000   -0.0000
       27 NB     9py       -0.0000   -0.0000   -0.0000   -0.0000   -0.0000    0.0000    0.0002    0.0002    0.0000    0.0000
       28 NB    10py        0.0000    0.0000    0.0000    0.0000    0.0000   -0.0000   -0.0001   -0.0001   -0.0000   -0.0000
       29 NB     2pz        0.0000    0.0000   -0.0000    0.0000    1.0000   -0.0000   -0.0000    0.0000    0.0001    0.0000
       30 NB     3pz       -0.0000    0.0000    0.0000   -0.0000   -0.0001    0.0004   -0.0000    0.0000    1.0000    0.0000
       31 NB     4pz        0.0000   -0.0000   -0.0000    0.0000    0.0000    0.0001    0.0000   -0.0000   -0.0015    0.0000
       32 NB     5pz       -0.0000    0.0000    0.0000   -0.0000   -0.0000   -0.0000   -0.0000    0.0000    0.0003    0.0000
       33 NB     6pz        0.0000   -0.0000   -0.0000    0.0000    0.0000    0.0000    0.0000   -0.0000   -0.0005   -0.0000
       34 NB     7pz       -0.0000    0.0000    0.0000   -0.0000   -0.0000   -0.0000   -0.0000    0.0000    0.0004    0.0000
       35 NB     8pz        0.0000   -0.0000   -0.0000    0.0000    0.0000    0.0000    0.0000   -0.0000   -0.0004    0.0000
       36 NB     9pz       -0.0000    0.0000    0.0000   -0.0000   -0.0000   -0.0000   -0.0000    0.0000    0.0003    0.0000
       37 NB    10pz        0.0000   -0.0000   -0.0000    0.0000    0.0000    0.0000    0.0000   -0.0000   -0.0002   -0.0000
       38 NB     3d2-      -0.0000   -0.0000   -0.0000   -0.0000   -0.0000   -0.0000    0.0000    0.0000    0.0000    0.9796
       39 NB     4d2-       0.0000    0.0000   -0.0000   -0.0000   -0.0000    0.0000    0.0000    0.0000    0.0000   -0.0014
       40 NB     5d2-      -0.0000   -0.0000    0.0000    0.0000    0.0000   -0.0000   -0.0000   -0.0000   -0.0000    0.0007
       41 NB     6d2-       0.0000    0.0000   -0.0000   -0.0000   -0.0000    0.0000    0.0000    0.0000    0.0000   -0.0003
       42 NB     7d2-      -0.0000   -0.0000    0.0000    0.0000    0.0000   -0.0000    0.0000    0.0000    0.0000    0.0001
       43 NB     8d2-       0.0000    0.0000    0.0000    0.0000    0.0000    0.0000   -0.0000   -0.0000   -0.0000   -0.0001
       44 NB     9d2-      -0.0000   -0.0000   -0.0000   -0.0000   -0.0000   -0.0000    0.0000    0.0000    0.0000    0.0002
       45 NB    10d2-      -0.0000   -0.0000   -0.0000   -0.0000   -0.0000   -0.0000    0.0000    0.0000    0.0000    0.0003
       46 NB     3d1-       0.0000    0.0000    0.0000    0.0000    0.0000    0.0000    0.0002    0.0002    0.0000   -0.0405
       47 NB     4d1-       0.0000   -0.0000   -0.0000   -0.0000   -0.0000   -0.0000    0.0000    0.0000    0.0000    0.0000
       48 NB     5d1-       0.0000    0.0000    0.0000    0.0000    0.0000    0.0000   -0.0000   -0.0000   -0.0000   -0.0000
       49 NB     6d1-      -0.0000   -0.0000   -0.0000   -0.0000   -0.0000   -0.0000    0.0000    0.0000    0.0000    0.0000
       50 NB     7d1-       0.0000    0.0000    0.0000    0.0000    0.0000    0.0000   -0.0000   -0.0000   -0.0000   -0.0000
       51 NB     8d1-      -0.0000   -0.0000    0.0000    0.0000    0.0000   -0.0000    0.0000    0.0000    0.0000    0.0000
       52 NB     9d1-       0.0000    0.0000   -0.0000   -0.0000   -0.0000    0.0000   -0.0000   -0.0000   -0.0000   -0.0000
       53 NB    10d1-       0.0000    0.0000   -0.0000   -0.0000   -0.0000    0.0000   -0.0000   -0.0000   -0.0000   -0.0000
       54 NB     3d0       -0.0000   -0.0000   -0.0000    0.0000    0.0000   -0.0001   -0.0000    0.0000    0.0002   -0.0000
       55 NB     4d0        0.0000    0.0000   -0.0000    0.0000    0.0000   -0.0000   -0.0000    0.0000    0.0000    0.0000
       56 NB     5d0       -0.0000   -0.0000    0.0000   -0.0000   -0.0000    0.0000    0.0000   -0.0000   -0.0000   -0.0000
       57 NB     6d0        0.0000    0.0000   -0.0000    0.0000    0.0000   -0.0000   -0.0000    0.0000    0.0000    0.0000
       58 NB     7d0       -0.0000   -0.0000    0.0000   -0.0000   -0.0000    0.0000    0.0000   -0.0000   -0.0000   -0.0000
       59 NB     8d0        0.0000    0.0000    0.0000    0.0000   -0.0000   -0.0000   -0.0000    0.0000    0.0000    0.0000
       60 NB     9d0       -0.0000   -0.0000   -0.0000   -0.0000    0.0000    0.0000    0.0000   -0.0000   -0.0000   -0.0000
       61 NB    10d0       -0.0000   -0.0000   -0.0000   -0.0000    0.0000    0.0000    0.0000   -0.0000   -0.0000   -0.0000
       62 NB     3d1+       0.0000    0.0000   -0.0000    0.0000   -0.0000    0.0000   -0.0002    0.0002   -0.0000    0.0081
       63 NB     4d1+      -0.0000   -0.0000    0.0000   -0.0000    0.0000    0.0000   -0.0000    0.0000   -0.0000   -0.0000
       64 NB     5d1+       0.0000    0.0000   -0.0000    0.0000   -0.0000   -0.0000    0.0000   -0.0000    0.0000    0.0000
       65 NB     6d1+      -0.0000   -0.0000    0.0000   -0.0000    0.0000    0.0000   -0.0000    0.0000   -0.0000   -0.0000
       66 NB     7d1+       0.0000    0.0000   -0.0000    0.0000   -0.0000   -0.0000    0.0000   -0.0000    0.0000    0.0000
       67 NB     8d1+      -0.0000   -0.0000   -0.0000    0.0000   -0.0000    0.0000   -0.0000    0.0000   -0.0000   -0.0000
       68 NB     9d1+       0.0000    0.0000    0.0000   -0.0000    0.0000   -0.0000    0.0000   -0.0000    0.0000    0.0000
       69 NB    10d1+       0.0000    0.0000    0.0000   -0.0000    0.0000   -0.0000    0.0000   -0.0000    0.0000    0.0000
       70 NB     3d2+      -0.0000   -0.0000   -0.0000    0.0000   -0.0000    0.0000    0.0000   -0.0000    0.0000    0.1965
       71 NB     4d2+      -0.0000    0.0000   -0.0000    0.0000   -0.0000    0.0000    0.0000   -0.0000    0.0000   -0.0003
       72 NB     5d2+       0.0000   -0.0000    0.0000   -0.0000    0.0000   -0.0000   -0.0000    0.0000   -0.0000    0.0002
       73 NB     6d2+      -0.0000    0.0000   -0.0000    0.0000   -0.0000    0.0000    0.0000   -0.0000    0.0000   -0.0001
       74 NB     7d2+       0.0000   -0.0000    0.0000   -0.0000    0.0000   -0.0000    0.0000   -0.0000    0.0000    0.0000
       75 NB     8d2+      -0.0000    0.0000    0.0000   -0.0000    0.0000    0.0000   -0.0000    0.0000   -0.0000   -0.0000
       76 NB     9d2+       0.0000   -0.0000   -0.0000    0.0000   -0.0000   -0.0000    0.0000   -0.0000    0.0000    0.0000
       77 NB    10d2+       0.0000   -0.0000   -0.0000    0.0000   -0.0000   -0.0000    0.0000   -0.0000    0.0000    0.0001
       78 NB     4f3-      -0.0000    0.0000    0.0000    0.0000    0.0000    0.0000    0.0000    0.0000   -0.0000   -0.0000
       79 NB     5f3-       0.0000    0.0000    0.0000   -0.0000    0.0000    0.0000    0.0000    0.0000   -0.0000   -0.0000
       80 NB     6f3-      -0.0000   -0.0000   -0.0000   -0.0000   -0.0000   -0.0000   -0.0000   -0.0000    0.0000    0.0000
       81 NB     7f3-       0.0000    0.0000    0.0000    0.0000   -0.0000    0.0000    0.0000    0.0000    0.0000   -0.0000
       82 NB     8f3-      -0.0000   -0.0000    0.0000    0.0000   -0.0000    0.0000    0.0000    0.0000    0.0000   -0.0000
       83 NB     4f2-      -0.0000    0.0000   -0.0000   -0.0000   -0.0000    0.0000   -0.0000   -0.0000   -0.0000    0.0001
       84 NB     5f2-      -0.0000    0.0000   -0.0000   -0.0000   -0.0000    0.0000   -0.0000   -0.0000   -0.0000    0.0001
       85 NB     6f2-       0.0000   -0.0000    0.0000    0.0000    0.0000   -0.0000    0.0000    0.0000    0.0000   -0.0000
       86 NB     7f2-      -0.0000    0.0000   -0.0000   -0.0000   -0.0000    0.0000   -0.0000   -0.0000   -0.0000    0.0000
       87 NB     8f2-      -0.0000    0.0000   -0.0000   -0.0000   -0.0000    0.0000   -0.0000   -0.0000   -0.0000    0.0000
       88 NB     4f1-      -0.0000    0.0000   -0.0000   -0.0000   -0.0000    0.0000   -0.0000   -0.0000   -0.0000   -0.0000
       89 NB     5f1-      -0.0000    0.0000   -0.0000   -0.0000   -0.0000    0.0000   -0.0000   -0.0000   -0.0000   -0.0000
       90 NB     6f1-       0.0000    0.0000    0.0000    0.0000    0.0000   -0.0000    0.0000    0.0000    0.0000    0.0000
       91 NB     7f1-      -0.0000   -0.0000   -0.0000   -0.0000   -0.0000    0.0000   -0.0000   -0.0000   -0.0000    0.0000
       92 NB     8f1-       0.0000   -0.0000   -0.0000   -0.0000   -0.0000    0.0000   -0.0000   -0.0000   -0.0000    0.0000
       93 NB     4f0       -0.0000    0.0000    0.0000   -0.0000   -0.0000   -0.0000    0.0000   -0.0000   -0.0000   -0.0000
       94 NB     5f0       -0.0000    0.0000    0.0000   -0.0000   -0.0000   -0.0000    0.0000   -0.0000   -0.0000   -0.0000
       95 NB     6f0        0.0000   -0.0000   -0.0000    0.0000    0.0000    0.0000   -0.0000    0.0000    0.0000    0.0000
       96 NB     7f0       -0.0000    0.0000    0.0000   -0.0000   -0.0000    0.0000    0.0000   -0.0000   -0.0000   -0.0000
       97 NB     8f0        0.0000    0.0000    0.0000   -0.0000   -0.0000    0.0000    0.0000   -0.0000   -0.0000   -0.0000
       98 NB     4f1+      -0.0000    0.0000    0.0000   -0.0000    0.0000   -0.0000    0.0000   -0.0000    0.0000    0.0000
       99 NB     5f1+      -0.0000    0.0000    0.0000   -0.0000    0.0000   -0.0000    0.0000   -0.0000    0.0000    0.0000
      100 NB     6f1+       0.0000   -0.0000   -0.0000    0.0000   -0.0000    0.0000   -0.0000    0.0000   -0.0000   -0.0000
      101 NB     7f1+      -0.0000    0.0000    0.0000   -0.0000    0.0000    0.0000    0.0000   -0.0000    0.0000   -0.0000
      102 NB     8f1+       0.0000    0.0000    0.0000   -0.0000    0.0000    0.0000    0.0000   -0.0000    0.0000   -0.0000
      103 NB     4f2+       0.0000   -0.0000   -0.0000    0.0000    0.0000    0.0000   -0.0000    0.0000   -0.0000    0.0000
      104 NB     5f2+       0.0000   -0.0000   -0.0000    0.0000   -0.0000    0.0000   -0.0000    0.0000   -0.0000    0.0000
      105 NB     6f2+      -0.0000    0.0000    0.0000   -0.0000    0.0000   -0.0000    0.0000   -0.0000    0.0000   -0.0000
      106 NB     7f2+       0.0000   -0.0000   -0.0000    0.0000   -0.0000    0.0000   -0.0000    0.0000    0.0000    0.0000
      107 NB     8f2+      -0.0000   -0.0000   -0.0000    0.0000    0.0000   -0.0000   -0.0000    0.0000    0.0000    0.0000
      108 NB     4f3+      -0.0000    0.0000   -0.0000    0.0000    0.0000   -0.0000   -0.0000    0.0000    0.0000   -0.0000
      109 NB     5f3+      -0.0000    0.0000   -0.0000    0.0000    0.0000   -0.0000   -0.0000    0.0000    0.0000   -0.0000
      110 NB     6f3+       0.0000   -0.0000    0.0000   -0.0000   -0.0000    0.0000    0.0000   -0.0000   -0.0000    0.0000
      111 NB     7f3+      -0.0000    0.0000   -0.0000    0.0000    0.0000    0.0000   -0.0000    0.0000    0.0000   -0.0000
      112 NB     8f3+       0.0000    0.0000   -0.0000    0.0000    0.0000    0.0000   -0.0000    0.0000   -0.0000   -0.0000
      113 NB     5g4-      -0.0000   -0.0000    0.0000    0.0000    0.0000   -0.0000   -0.0000   -0.0000   -0.0000    0.0000
      114 NB     6g4-       0.0000    0.0000   -0.0000   -0.0000   -0.0000    0.0000    0.0000    0.0000    0.0000    0.0000
      115 NB     7g4-      -0.0000    0.0000    0.0000    0.0000    0.0000   -0.0000   -0.0000   -0.0000   -0.0000   -0.0000
      116 NB     8g4-       0.0000   -0.0000   -0.0000   -0.0000   -0.0000    0.0000   -0.0000   -0.0000   -0.0000    0.0000
      117 NB     5g3-       0.0000   -0.0000   -0.0000   -0.0000   -0.0000   -0.0000    0.0000    0.0000    0.0000    0.0000
      118 NB     6g3-      -0.0000    0.0000    0.0000   -0.0000   -0.0000   -0.0000   -0.0000   -0.0000    0.0000   -0.0000
      119 NB     7g3-       0.0000   -0.0000   -0.0000    0.0000    0.0000    0.0000    0.0000    0.0000    0.0000    0.0000
      120 NB     8g3-      -0.0000   -0.0000    0.0000    0.0000   -0.0000   -0.0000    0.0000    0.0000   -0.0000   -0.0000
      121 NB     5g2-      -0.0000    0.0000    0.0000    0.0000    0.0000   -0.0000   -0.0000   -0.0000   -0.0000   -0.0000
      122 NB     6g2-       0.0000   -0.0000   -0.0000   -0.0000   -0.0000    0.0000    0.0000    0.0000    0.0000    0.0000
      123 NB     7g2-      -0.0000    0.0000    0.0000    0.0000    0.0000   -0.0000   -0.0000   -0.0000    0.0000   -0.0000
      124 NB     8g2-       0.0000   -0.0000   -0.0000   -0.0000   -0.0000    0.0000   -0.0000   -0.0000   -0.0000    0.0000
      125 NB     5g1-      -0.0000    0.0000    0.0000    0.0000    0.0000    0.0000   -0.0000   -0.0000   -0.0000    0.0000
      126 NB     6g1-      -0.0000   -0.0000   -0.0000   -0.0000   -0.0000   -0.0000    0.0000    0.0000    0.0000   -0.0000
      127 NB     7g1-       0.0000   -0.0000    0.0000    0.0000    0.0000    0.0000   -0.0000   -0.0000   -0.0000    0.0000
      128 NB     8g1-      -0.0000    0.0000   -0.0000   -0.0000   -0.0000    0.0000   -0.0000   -0.0000   -0.0000   -0.0000
      129 NB     5g0       -0.0000    0.0000   -0.0000    0.0000    0.0000   -0.0000    0.0000   -0.0000   -0.0000    0.0000
      130 NB     6g0       -0.0000   -0.0000   -0.0000   -0.0000   -0.0000    0.0000   -0.0000    0.0000    0.0000   -0.0000
      131 NB     7g0       -0.0000   -0.0000   -0.0000    0.0000    0.0000    0.0000    0.0000   -0.0000   -0.0000    0.0000
      132 NB     8g0        0.0000   -0.0000    0.0000   -0.0000   -0.0000    0.0000    0.0000   -0.0000   -0.0000    0.0000
      133 NB     5g1+      -0.0000    0.0000   -0.0000    0.0000   -0.0000   -0.0000    0.0000   -0.0000    0.0000   -0.0000
      134 NB     6g1+       0.0000   -0.0000    0.0000   -0.0000    0.0000    0.0000   -0.0000    0.0000   -0.0000    0.0000
      135 NB     7g1+      -0.0000   -0.0000   -0.0000    0.0000   -0.0000   -0.0000    0.0000   -0.0000    0.0000   -0.0000
      136 NB     8g1+       0.0000   -0.0000    0.0000   -0.0000    0.0000    0.0000    0.0000   -0.0000    0.0000    0.0000
      137 NB     5g2+      -0.0000    0.0000    0.0000   -0.0000    0.0000   -0.0000   -0.0000    0.0000    0.0000   -0.0000
      138 NB     6g2+       0.0000   -0.0000   -0.0000    0.0000   -0.0000    0.0000    0.0000   -0.0000   -0.0000    0.0000
      139 NB     7g2+      -0.0000   -0.0000    0.0000   -0.0000    0.0000   -0.0000   -0.0000    0.0000    0.0000   -0.0000
      140 NB     8g2+       0.0000   -0.0000   -0.0000    0.0000   -0.0000    0.0000   -0.0000    0.0000   -0.0000    0.0000
      141 NB     5g3+       0.0000   -0.0000   -0.0000    0.0000    0.0000    0.0000    0.0000   -0.0000   -0.0000    0.0000
      142 NB     6g3+       0.0000    0.0000    0.0000   -0.0000   -0.0000   -0.0000   -0.0000    0.0000    0.0000   -0.0000
      143 NB     7g3+       0.0000    0.0000   -0.0000    0.0000    0.0000    0.0000    0.0000   -0.0000   -0.0000    0.0000
      144 NB     8g3+      -0.0000    0.0000    0.0000   -0.0000   -0.0000   -0.0000    0.0000   -0.0000   -0.0000   -0.0000
      145 NB     5g4+      -0.0000    0.0000   -0.0000    0.0000   -0.0000   -0.0000    0.0000   -0.0000    0.0000   -0.0000
      146 NB     6g4+      -0.0000   -0.0000    0.0000   -0.0000    0.0000    0.0000   -0.0000    0.0000   -0.0000   -0.0000
      147 NB     7g4+      -0.0000   -0.0000   -0.0000    0.0000   -0.0000   -0.0000    0.0000   -0.0000    0.0000    0.0000
      148 NB     8g4+       0.0000   -0.0000    0.0000   -0.0000    0.0000    0.0000    0.0000   -0.0000    0.0000   -0.0000
      149 NB     6h5-       0.0000   -0.0000    0.0000    0.0000   -0.0000    0.0000    0.0000    0.0000    0.0000   -0.0000
      150 NB     7h5-      -0.0000    0.0000   -0.0000   -0.0000    0.0000   -0.0000   -0.0000   -0.0000    0.0000    0.0000
      151 NB     6h4-       0.0000    0.0000   -0.0000   -0.0000   -0.0000    0.0000    0.0000    0.0000    0.0000    0.0000
      152 NB     7h4-       0.0000    0.0000   -0.0000   -0.0000   -0.0000   -0.0000   -0.0000   -0.0000   -0.0000   -0.0000
      153 NB     6h3-      -0.0000   -0.0000    0.0000    0.0000   -0.0000   -0.0000   -0.0000   -0.0000    0.0000   -0.0000
      154 NB     7h3-       0.0000   -0.0000   -0.0000   -0.0000    0.0000    0.0000    0.0000    0.0000    0.0000    0.0000
      155 NB     6h2-       0.0000    0.0000   -0.0000   -0.0000   -0.0000    0.0000    0.0000    0.0000    0.0000   -0.0000
      156 NB     7h2-       0.0000   -0.0000   -0.0000   -0.0000   -0.0000   -0.0000   -0.0000   -0.0000   -0.0000    0.0000
      157 NB     6h1-       0.0000   -0.0000    0.0000    0.0000   -0.0000   -0.0000    0.0000    0.0000   -0.0000    0.0000
      158 NB     7h1-      -0.0000    0.0000   -0.0000   -0.0000   -0.0000    0.0000    0.0000    0.0000    0.0000   -0.0000
      159 NB     6h0       -0.0000    0.0000   -0.0000   -0.0000    0.0000   -0.0000    0.0000   -0.0000   -0.0000    0.0000
      160 NB     7h0       -0.0000    0.0000   -0.0000    0.0000    0.0000    0.0000    0.0000   -0.0000    0.0000   -0.0000
      161 NB     6h1+       0.0000   -0.0000   -0.0000    0.0000   -0.0000    0.0000   -0.0000    0.0000   -0.0000   -0.0000
      162 NB     7h1+       0.0000   -0.0000    0.0000   -0.0000    0.0000   -0.0000   -0.0000    0.0000    0.0000    0.0000
      163 NB     6h2+       0.0000   -0.0000   -0.0000    0.0000   -0.0000    0.0000    0.0000   -0.0000    0.0000   -0.0000
      164 NB     7h2+       0.0000   -0.0000   -0.0000    0.0000   -0.0000   -0.0000   -0.0000    0.0000    0.0000    0.0000
      165 NB     6h3+      -0.0000    0.0000    0.0000   -0.0000   -0.0000   -0.0000   -0.0000    0.0000    0.0000   -0.0000
      166 NB     7h3+      -0.0000    0.0000    0.0000    0.0000   -0.0000    0.0000    0.0000   -0.0000   -0.0000   -0.0000
      167 NB     6h4+       0.0000   -0.0000    0.0000   -0.0000    0.0000    0.0000   -0.0000    0.0000   -0.0000   -0.0000
      168 NB     7h4+       0.0000   -0.0000    0.0000   -0.0000    0.0000   -0.0000    0.0000   -0.0000    0.0000    0.0000
      169 NB     6h5+       0.0000   -0.0000    0.0000   -0.0000   -0.0000    0.0000    0.0000   -0.0000    0.0000   -0.0000
      170 NB     7h5+      -0.0000   -0.0000   -0.0000    0.0000    0.0000   -0.0000   -0.0000    0.0000    0.0000    0.0000

          Orbital           11        12        13        14        15        16        17        18        19        20    
          Energy           -9.5332   -9.5326   -9.5326   -9.5324   -3.8489   -2.7106   -2.7106   -2.6997   -0.7577   -0.7577
          Occ. No.          2.0000    2.0000    2.0000    2.0000    2.0000    2.0000    2.0000    2.0000    0.0000    0.0000

        1 NB     1s         0.0000   -0.0000   -0.0000    0.0000   -0.0000    0.0000   -0.0000   -0.0000    0.0000    0.0000
        2 NB     2s         0.0000    0.0000    0.0000    0.0000   -0.0000   -0.0000   -0.0000    0.0000    0.0000    0.0000
        3 NB     3s         0.0000   -0.0000   -0.0000    0.0001    0.0010    0.0000    0.0000   -0.0001   -0.0000    0.0000
        4 NB     4s        -0.0000    0.0000    0.0000   -0.0001    0.9986    0.0000    0.0000   -0.0123   -0.0000    0.0000
        5 NB     5s        -0.0000   -0.0000   -0.0000    0.0000   -0.0327   -0.0000    0.0000    0.0040    0.0000    0.0000
        6 NB     6s         0.0000    0.0000    0.0000   -0.0000    0.0269    0.0000    0.0000   -0.0034   -0.0000   -0.0000
        7 NB     7s         0.0000   -0.0000    0.0000    0.0000   -0.0291   -0.0000    0.0000    0.0037    0.0000    0.0000
        8 NB     8s        -0.0000   -0.0000   -0.0000    0.0000   -0.0018   -0.0000    0.0000    0.0002    0.0000    0.0000
        9 NB     9s        -0.0000    0.0000    0.0000   -0.0000    0.0037    0.0000    0.0000   -0.0004    0.0000    0.0000
       10 NB    10s        -0.0000   -0.0000   -0.0000    0.0000    0.0006    0.0000   -0.0000   -0.0001    0.0000    0.0000
       11 NB     2px        0.0000   -0.0000   -0.0000    0.0000   -0.0000   -0.0000   -0.0000    0.0000   -0.0000   -0.0000
       12 NB     3px       -0.0000   -0.0000   -0.0003    0.0000    0.0000    0.0014    0.0000   -0.0000   -0.0000   -0.0000
       13 NB     4px        0.0000    0.0000    0.0002   -0.0000   -0.0000    0.9963    0.0041   -0.0000   -0.0006   -0.0000
       14 NB     5px        0.0000   -0.0000   -0.0000   -0.0000   -0.0000   -0.0616   -0.0003    0.0000   -0.0079   -0.0000
       15 NB     6px       -0.0000    0.0000    0.0000    0.0000    0.0000    0.0574    0.0002   -0.0000    0.0029    0.0000
       16 NB     7px        0.0000    0.0000    0.0000   -0.0000   -0.0000    0.0014    0.0000   -0.0000    0.0023    0.0000
       17 NB     8px       -0.0000   -0.0000   -0.0000    0.0000    0.0000   -0.0087   -0.0000    0.0000   -0.0001   -0.0000
       18 NB     9px        0.0000    0.0000    0.0000   -0.0000    0.0000   -0.0034   -0.0000    0.0000   -0.0004   -0.0000
       19 NB    10px       -0.0000   -0.0000   -0.0000    0.0000    0.0000   -0.0002   -0.0000    0.0000   -0.0001   -0.0000
       20 NB     2py        0.0000   -0.0000    0.0000    0.0000    0.0000    0.0000   -0.0000    0.0000   -0.0000    0.0000
       21 NB     3py       -0.0000   -0.0003    0.0000   -0.0000   -0.0000   -0.0000    0.0014    0.0000   -0.0000    0.0000
       22 NB     4py        0.0000    0.0002   -0.0000   -0.0000   -0.0000   -0.0041    0.9963    0.0000   -0.0000    0.0006
       23 NB     5py        0.0000   -0.0000    0.0000   -0.0000    0.0000    0.0003   -0.0616   -0.0000   -0.0000    0.0079
       24 NB     6py       -0.0000    0.0000   -0.0000   -0.0000   -0.0000   -0.0002    0.0574    0.0000    0.0000   -0.0029
       25 NB     7py        0.0000    0.0000   -0.0000    0.0000    0.0000   -0.0000    0.0014    0.0000    0.0000   -0.0023
       26 NB     8py       -0.0000   -0.0000    0.0000   -0.0000    0.0000    0.0000   -0.0087   -0.0000   -0.0000    0.0001
       27 NB     9py        0.0000    0.0000   -0.0000    0.0000    0.0000    0.0000   -0.0034   -0.0000   -0.0000    0.0004
       28 NB    10py       -0.0000   -0.0000    0.0000   -0.0000   -0.0000    0.0000   -0.0002   -0.0000   -0.0000    0.0001
       29 NB     2pz       -0.0000   -0.0000   -0.0000   -0.0000    0.0000   -0.0000   -0.0000   -0.0000   -0.0000   -0.0000
       30 NB     3pz       -0.0000    0.0000    0.0000   -0.0002   -0.0001    0.0000    0.0000    0.0015    0.0000    0.0000
       31 NB     4pz        0.0000   -0.0000   -0.0000    0.0001    0.0127    0.0000    0.0000    0.9960    0.0000    0.0000
       32 NB     5pz       -0.0000   -0.0000   -0.0000   -0.0000    0.0001   -0.0000   -0.0000   -0.0641   -0.0000    0.0000
       33 NB     6pz        0.0000    0.0000    0.0000    0.0000   -0.0008    0.0000    0.0000    0.0602    0.0000   -0.0000
       34 NB     7pz       -0.0000   -0.0000   -0.0000   -0.0000    0.0005    0.0000    0.0000    0.0013    0.0000   -0.0000
       35 NB     8pz        0.0000    0.0000    0.0000    0.0000   -0.0000   -0.0000   -0.0000   -0.0092   -0.0000   -0.0000
       36 NB     9pz       -0.0000   -0.0000   -0.0000   -0.0000   -0.0001   -0.0000   -0.0000   -0.0036   -0.0000   -0.0000
       37 NB    10pz        0.0000    0.0000    0.0000    0.0000   -0.0000   -0.0000   -0.0000   -0.0002   -0.0000   -0.0000
       38 NB     3d2-       0.1965    0.0410   -0.0044   -0.0000   -0.0000    0.0000   -0.0000   -0.0000   -0.0000    0.0015
       39 NB     4d2-      -0.0003   -0.0001    0.0000    0.0000   -0.0000   -0.0000    0.0058   -0.0000   -0.0001    0.8973
       40 NB     5d2-       0.0002    0.0000   -0.0000   -0.0000    0.0000    0.0000   -0.0011    0.0000    0.0000   -0.2450
       41 NB     6d2-      -0.0001   -0.0000    0.0000    0.0000   -0.0000    0.0000   -0.0006   -0.0000   -0.0000    0.0104
       42 NB     7d2-       0.0000    0.0000   -0.0000   -0.0000    0.0000   -0.0000    0.0006    0.0000   -0.0000    0.0295
       43 NB     8d2-      -0.0000   -0.0000    0.0000    0.0000   -0.0000    0.0000   -0.0000    0.0000    0.0000   -0.0090
       44 NB     9d2-       0.0000    0.0000   -0.0000   -0.0000    0.0000    0.0000   -0.0002   -0.0000    0.0000   -0.0115
       45 NB    10d2-       0.0001    0.0000   -0.0000   -0.0000    0.0000   -0.0000    0.0001    0.0000   -0.0000    0.0017
       46 NB     3d1-      -0.0081    0.9934   -0.1067    0.0000   -0.0000    0.0000   -0.0002   -0.0000    0.0000   -0.0006
       47 NB     4d1-       0.0000   -0.0015    0.0002   -0.0000   -0.0000   -0.0001    0.0142    0.0000    0.0001   -0.3513
       48 NB     5d1-      -0.0000    0.0008   -0.0001    0.0000    0.0000    0.0000   -0.0038   -0.0000   -0.0000    0.0934
       49 NB     6d1-       0.0000   -0.0004    0.0000   -0.0000   -0.0000    0.0000   -0.0007   -0.0000    0.0000   -0.0032
       50 NB     7d1-      -0.0000    0.0002   -0.0000    0.0000    0.0000   -0.0000    0.0014    0.0000    0.0000   -0.0109
       51 NB     8d1-       0.0000   -0.0001    0.0000   -0.0000   -0.0000    0.0000   -0.0004   -0.0000   -0.0000    0.0027
       52 NB     9d1-      -0.0000    0.0002   -0.0000    0.0000    0.0000    0.0000   -0.0004   -0.0000   -0.0000    0.0038
       53 NB    10d1-      -0.0000    0.0003   -0.0000    0.0000    0.0000   -0.0000    0.0002    0.0000    0.0000   -0.0005
       54 NB     3d0        0.0000    0.0000    0.0000    1.0000    0.0001   -0.0000    0.0000   -0.0001   -0.0000   -0.0000
       55 NB     4d0       -0.0000   -0.0000   -0.0000   -0.0015   -0.0031    0.0000    0.0000    0.0004   -0.0000   -0.0000
       56 NB     5d0        0.0000    0.0000    0.0000    0.0008    0.0010   -0.0000   -0.0000   -0.0015    0.0000    0.0000
       57 NB     6d0       -0.0000   -0.0000   -0.0000   -0.0004    0.0001    0.0000    0.0000    0.0009   -0.0000   -0.0000
       58 NB     7d0        0.0000    0.0000    0.0000    0.0002   -0.0004    0.0000    0.0000   -0.0001   -0.0000   -0.0000
       59 NB     8d0       -0.0000   -0.0000   -0.0000   -0.0001    0.0002   -0.0000   -0.0000   -0.0005    0.0000    0.0000
       60 NB     9d0        0.0000    0.0000    0.0000    0.0002    0.0001   -0.0000   -0.0000   -0.0000    0.0000    0.0000
       61 NB    10d0        0.0000    0.0000    0.0000    0.0003   -0.0000   -0.0000   -0.0000   -0.0001    0.0000    0.0000
       62 NB     3d1+      -0.0405    0.1067    0.9934   -0.0000   -0.0000   -0.0002   -0.0000    0.0000    0.0006    0.0000
       63 NB     4d1+       0.0000   -0.0002   -0.0015    0.0000    0.0000    0.0142    0.0001   -0.0000    0.3513    0.0001
       64 NB     5d1+      -0.0000    0.0001    0.0008   -0.0000   -0.0000   -0.0038   -0.0000    0.0000   -0.0934   -0.0000
       65 NB     6d1+       0.0000   -0.0000   -0.0004    0.0000   -0.0000   -0.0007   -0.0000    0.0000    0.0032    0.0000
       66 NB     7d1+      -0.0000    0.0000    0.0002   -0.0000    0.0000    0.0014    0.0000   -0.0000    0.0109    0.0000
       67 NB     8d1+       0.0000   -0.0000   -0.0001    0.0000   -0.0000   -0.0004   -0.0000    0.0000   -0.0027   -0.0000
       68 NB     9d1+      -0.0000    0.0000    0.0002   -0.0000   -0.0000   -0.0004   -0.0000    0.0000   -0.0038   -0.0000
       69 NB    10d1+      -0.0000    0.0000    0.0003   -0.0000    0.0000    0.0002    0.0000   -0.0000    0.0005    0.0000
       70 NB     3d2+      -0.9796   -0.0044   -0.0410    0.0000   -0.0000    0.0000    0.0000   -0.0000    0.0015    0.0000
       71 NB     4d2+       0.0014    0.0000    0.0001   -0.0000    0.0000   -0.0058   -0.0000    0.0000    0.8973    0.0001
       72 NB     5d2+      -0.0007   -0.0000   -0.0000    0.0000   -0.0000    0.0011    0.0000   -0.0000   -0.2450   -0.0000
       73 NB     6d2+       0.0003    0.0000    0.0000   -0.0000   -0.0000    0.0006    0.0000   -0.0000    0.0104    0.0000
       74 NB     7d2+      -0.0001   -0.0000   -0.0000    0.0000    0.0000   -0.0006   -0.0000    0.0000    0.0295    0.0000
       75 NB     8d2+       0.0001    0.0000    0.0000   -0.0000   -0.0000    0.0000    0.0000   -0.0000   -0.0090   -0.0000
       76 NB     9d2+      -0.0002   -0.0000   -0.0000    0.0000   -0.0000    0.0002    0.0000   -0.0000   -0.0115   -0.0000
       77 NB    10d2+      -0.0003   -0.0000   -0.0000    0.0000    0.0000   -0.0001   -0.0000    0.0000    0.0017    0.0000
       78 NB     4f3-      -0.0000   -0.0000    0.0000   -0.0000   -0.0000   -0.0000    0.0000    0.0000    0.0000   -0.0000
       79 NB     5f3-      -0.0000   -0.0000    0.0000    0.0000   -0.0000    0.0000   -0.0000    0.0000   -0.0000    0.0000
       80 NB     6f3-       0.0000    0.0000   -0.0000    0.0000   -0.0000   -0.0000    0.0000   -0.0000    0.0000   -0.0000
       81 NB     7f3-      -0.0000   -0.0000    0.0000   -0.0000    0.0000   -0.0000    0.0000   -0.0000    0.0000   -0.0000
       82 NB     8f3-      -0.0000   -0.0000    0.0000    0.0000    0.0000   -0.0000    0.0000   -0.0000   -0.0000   -0.0000
       83 NB     4f2-       0.0000    0.0000   -0.0000    0.0000   -0.0000    0.0000   -0.0017   -0.0000   -0.0000    0.0299
       84 NB     5f2-       0.0000    0.0000   -0.0000    0.0000   -0.0000   -0.0000    0.0005    0.0000    0.0000   -0.0144
       85 NB     6f2-      -0.0000   -0.0000    0.0000    0.0000    0.0000    0.0000   -0.0004   -0.0000   -0.0000    0.0011
       86 NB     7f2-       0.0000   -0.0000    0.0000   -0.0000   -0.0000    0.0000   -0.0002   -0.0000   -0.0000    0.0037
       87 NB     8f2-       0.0000   -0.0000    0.0000   -0.0000   -0.0000    0.0000   -0.0001   -0.0000    0.0000   -0.0019
       88 NB     4f1-      -0.0000    0.0001   -0.0000    0.0000   -0.0000    0.0000   -0.0025   -0.0000    0.0000   -0.0101
       89 NB     5f1-      -0.0000    0.0001   -0.0000    0.0000   -0.0000   -0.0000    0.0000   -0.0000   -0.0000    0.0042
       90 NB     6f1-       0.0000   -0.0000    0.0000   -0.0000   -0.0000    0.0000   -0.0005   -0.0000    0.0000   -0.0006
       91 NB     7f1-       0.0000    0.0000   -0.0000    0.0000   -0.0000    0.0000   -0.0001   -0.0000    0.0000   -0.0011
       92 NB     8f1-       0.0000    0.0000   -0.0000    0.0000    0.0000    0.0000   -0.0001   -0.0000   -0.0000    0.0004
       93 NB     4f0        0.0000    0.0000    0.0000    0.0001   -0.0035   -0.0000   -0.0000   -0.0035    0.0000    0.0000
       94 NB     5f0        0.0000    0.0000    0.0000    0.0001    0.0000    0.0000    0.0000    0.0002   -0.0000   -0.0000
       95 NB     6f0       -0.0000   -0.0000   -0.0000   -0.0000   -0.0009   -0.0000   -0.0000   -0.0007   -0.0000   -0.0000
       96 NB     7f0        0.0000    0.0000    0.0000    0.0000   -0.0001   -0.0000   -0.0000   -0.0001    0.0000    0.0000
       97 NB     8f0        0.0000    0.0000    0.0000    0.0000   -0.0003   -0.0000   -0.0000   -0.0002   -0.0000   -0.0000
       98 NB     4f1+      -0.0000    0.0000    0.0001   -0.0000   -0.0000   -0.0025   -0.0000    0.0000    0.0101    0.0000
       99 NB     5f1+      -0.0000    0.0000    0.0001   -0.0000   -0.0000    0.0000    0.0000    0.0000   -0.0042   -0.0000
      100 NB     6f1+       0.0000   -0.0000   -0.0000    0.0000   -0.0000   -0.0005   -0.0000    0.0000    0.0006    0.0000
      101 NB     7f1+       0.0000    0.0000    0.0000   -0.0000   -0.0000   -0.0001   -0.0000    0.0000    0.0011    0.0000
      102 NB     8f1+       0.0000    0.0000    0.0000   -0.0000   -0.0000   -0.0001   -0.0000    0.0000   -0.0004   -0.0000
      103 NB     4f2+      -0.0001   -0.0000   -0.0000    0.0000    0.0000    0.0017    0.0000   -0.0000    0.0299    0.0000
      104 NB     5f2+      -0.0001   -0.0000   -0.0000    0.0000    0.0000   -0.0005   -0.0000    0.0000   -0.0144   -0.0000
      105 NB     6f2+       0.0000    0.0000    0.0000   -0.0000    0.0000    0.0004    0.0000   -0.0000    0.0011    0.0000
      106 NB     7f2+      -0.0000    0.0000    0.0000   -0.0000   -0.0000    0.0002    0.0000   -0.0000    0.0037    0.0000
      107 NB     8f2+      -0.0000    0.0000    0.0000   -0.0000    0.0000    0.0001    0.0000   -0.0000   -0.0019   -0.0000
      108 NB     4f3+       0.0000    0.0000    0.0000    0.0000   -0.0023    0.0000    0.0000    0.0015   -0.0000   -0.0000
      109 NB     5f3+       0.0000    0.0000    0.0000    0.0000    0.0000   -0.0000   -0.0000   -0.0004    0.0000    0.0000
      110 NB     6f3+      -0.0000   -0.0000   -0.0000   -0.0000   -0.0006    0.0000    0.0000    0.0003   -0.0000   -0.0000
      111 NB     7f3+       0.0000   -0.0000   -0.0000   -0.0000   -0.0000    0.0000    0.0000    0.0002   -0.0000   -0.0000
      112 NB     8f3+       0.0000   -0.0000   -0.0000   -0.0000   -0.0002   -0.0000   -0.0000    0.0001   -0.0000   -0.0000
      113 NB     5g4-       0.0000    0.0000   -0.0000    0.0000   -0.0000    0.0000   -0.0021   -0.0000    0.0000   -0.0006
      114 NB     6g4-       0.0000   -0.0000    0.0000   -0.0000    0.0000    0.0000   -0.0011   -0.0000    0.0000   -0.0006
      115 NB     7g4-      -0.0000   -0.0000    0.0000    0.0000   -0.0000   -0.0000    0.0003    0.0000    0.0000   -0.0001
      116 NB     8g4-       0.0000   -0.0000    0.0000   -0.0000   -0.0000   -0.0000    0.0002    0.0000   -0.0000    0.0000
      117 NB     5g3-       0.0000    0.0000   -0.0000   -0.0000   -0.0000    0.0000   -0.0000    0.0000   -0.0000    0.0000
      118 NB     6g3-      -0.0000   -0.0000    0.0000   -0.0000    0.0000    0.0000   -0.0000   -0.0000   -0.0000    0.0000
      119 NB     7g3-       0.0000    0.0000   -0.0000    0.0000    0.0000    0.0000   -0.0000    0.0000   -0.0000    0.0000
      120 NB     8g3-      -0.0000   -0.0000    0.0000    0.0000   -0.0000   -0.0000    0.0000   -0.0000    0.0000   -0.0000
      121 NB     5g2-      -0.0000   -0.0000    0.0000   -0.0000   -0.0000    0.0000   -0.0001    0.0000    0.0000   -0.0027
      122 NB     6g2-       0.0000    0.0000   -0.0000    0.0000   -0.0000   -0.0000    0.0001    0.0000    0.0000   -0.0023
      123 NB     7g2-      -0.0000   -0.0000    0.0000    0.0000   -0.0000   -0.0000    0.0001    0.0000    0.0000   -0.0005
      124 NB     8g2-       0.0000    0.0000   -0.0000   -0.0000    0.0000   -0.0000    0.0000    0.0000   -0.0000    0.0000
      125 NB     5g1-       0.0000   -0.0000    0.0000   -0.0000    0.0000    0.0000   -0.0026   -0.0000   -0.0000    0.0045
      126 NB     6g1-      -0.0000    0.0000   -0.0000    0.0000   -0.0000    0.0000   -0.0014   -0.0000   -0.0000    0.0050
      127 NB     7g1-       0.0000   -0.0000    0.0000   -0.0000    0.0000   -0.0000    0.0004    0.0000   -0.0000    0.0019
      128 NB     8g1-      -0.0000    0.0000   -0.0000    0.0000    0.0000   -0.0000    0.0003    0.0000   -0.0000    0.0003
      129 NB     5g0       -0.0000   -0.0000   -0.0000   -0.0001   -0.0001   -0.0000   -0.0000   -0.0037   -0.0000   -0.0000
      130 NB     6g0        0.0000    0.0000    0.0000    0.0000   -0.0001   -0.0000   -0.0000   -0.0021    0.0000   -0.0000
      131 NB     7g0        0.0000   -0.0000   -0.0000   -0.0000    0.0000    0.0000    0.0000    0.0004    0.0000   -0.0000
      132 NB     8g0        0.0000    0.0000    0.0000    0.0000    0.0000    0.0000    0.0000    0.0004    0.0000   -0.0000
      133 NB     5g1+       0.0000   -0.0000   -0.0000    0.0000   -0.0000   -0.0026   -0.0000    0.0000   -0.0045   -0.0000
      134 NB     6g1+      -0.0000    0.0000    0.0000   -0.0000   -0.0000   -0.0014   -0.0000    0.0000   -0.0050   -0.0000
      135 NB     7g1+       0.0000   -0.0000   -0.0000    0.0000    0.0000    0.0004    0.0000   -0.0000   -0.0019   -0.0000
      136 NB     8g1+      -0.0000    0.0000    0.0000   -0.0000    0.0000    0.0003    0.0000   -0.0000   -0.0003   -0.0000
      137 NB     5g2+       0.0000    0.0000    0.0000   -0.0000   -0.0000    0.0001    0.0000    0.0000   -0.0027   -0.0000
      138 NB     6g2+      -0.0000   -0.0000   -0.0000    0.0000   -0.0000   -0.0001   -0.0000    0.0000   -0.0023   -0.0000
      139 NB     7g2+       0.0000    0.0000    0.0000    0.0000    0.0000   -0.0001   -0.0000   -0.0000   -0.0005   -0.0000
      140 NB     8g2+      -0.0000   -0.0000   -0.0000    0.0000    0.0000   -0.0000   -0.0000   -0.0000    0.0000    0.0000
      141 NB     5g3+      -0.0000   -0.0000   -0.0000   -0.0000    0.0009   -0.0000   -0.0000   -0.0019    0.0000    0.0000
      142 NB     6g3+       0.0000    0.0000    0.0000    0.0000    0.0005   -0.0000   -0.0000   -0.0012    0.0000    0.0000
      143 NB     7g3+      -0.0000    0.0000    0.0000    0.0000   -0.0002   -0.0000   -0.0000    0.0002    0.0000   -0.0000
      144 NB     8g3+       0.0000   -0.0000   -0.0000    0.0000   -0.0001    0.0000    0.0000    0.0002   -0.0000   -0.0000
      145 NB     5g4+       0.0000    0.0000    0.0000   -0.0000   -0.0000   -0.0021   -0.0000    0.0000    0.0006    0.0000
      146 NB     6g4+       0.0000   -0.0000   -0.0000    0.0000   -0.0000   -0.0011   -0.0000    0.0000    0.0006    0.0000
      147 NB     7g4+      -0.0000   -0.0000   -0.0000    0.0000    0.0000    0.0003    0.0000   -0.0000    0.0001    0.0000
      148 NB     8g4+       0.0000   -0.0000   -0.0000    0.0000    0.0000    0.0002    0.0000   -0.0000   -0.0000   -0.0000
      149 NB     6h5-      -0.0000   -0.0000    0.0000    0.0000    0.0000   -0.0000    0.0001    0.0000    0.0000   -0.0034
      150 NB     7h5-       0.0000   -0.0000    0.0000   -0.0000   -0.0000   -0.0000    0.0001   -0.0000    0.0000   -0.0033
      151 NB     6h4-       0.0000   -0.0000    0.0000   -0.0000   -0.0000   -0.0000    0.0008    0.0000   -0.0000    0.0009
      152 NB     7h4-      -0.0000    0.0000   -0.0000    0.0000   -0.0000   -0.0000    0.0007    0.0000   -0.0000    0.0008
      153 NB     6h3-      -0.0000    0.0000   -0.0000    0.0000    0.0000    0.0000   -0.0000    0.0000    0.0000   -0.0000
      154 NB     7h3-       0.0000   -0.0000    0.0000    0.0000   -0.0000    0.0000   -0.0000    0.0000    0.0000   -0.0000
      155 NB     6h2-      -0.0000   -0.0000    0.0000   -0.0000   -0.0000   -0.0000    0.0002    0.0000    0.0000   -0.0027
      156 NB     7h2-       0.0000    0.0000   -0.0000    0.0000   -0.0000   -0.0000    0.0002    0.0000    0.0000   -0.0027
      157 NB     6h1-       0.0000   -0.0000    0.0000   -0.0000   -0.0000   -0.0000    0.0001   -0.0000   -0.0000    0.0017
      158 NB     7h1-      -0.0000    0.0000   -0.0000    0.0000   -0.0000   -0.0000    0.0001   -0.0000   -0.0000    0.0016
      159 NB     6h0       -0.0000   -0.0000   -0.0000   -0.0000   -0.0001   -0.0000   -0.0000   -0.0003    0.0000    0.0000
      160 NB     7h0        0.0000    0.0000    0.0000    0.0000   -0.0001   -0.0000   -0.0000   -0.0003    0.0000    0.0000
      161 NB     6h1+       0.0000   -0.0000   -0.0000    0.0000    0.0000    0.0001    0.0000   -0.0000   -0.0017   -0.0000
      162 NB     7h1+      -0.0000    0.0000    0.0000   -0.0000    0.0000    0.0001    0.0000   -0.0000   -0.0016   -0.0000
      163 NB     6h2+       0.0000    0.0000    0.0000   -0.0000    0.0000   -0.0002   -0.0000    0.0000   -0.0027   -0.0000
      164 NB     7h2+      -0.0000   -0.0000   -0.0000    0.0000    0.0000   -0.0002   -0.0000    0.0000   -0.0027   -0.0000
      165 NB     6h3+       0.0000   -0.0000   -0.0000   -0.0000   -0.0002    0.0000    0.0000    0.0007   -0.0000   -0.0000
      166 NB     7h3+      -0.0000    0.0000    0.0000    0.0000   -0.0002    0.0000    0.0000    0.0006   -0.0000    0.0000
      167 NB     6h4+       0.0000   -0.0000   -0.0000    0.0000    0.0000    0.0008    0.0000   -0.0000   -0.0009   -0.0000
      168 NB     7h4+      -0.0000    0.0000    0.0000   -0.0000    0.0000    0.0007    0.0000   -0.0000   -0.0008   -0.0000
      169 NB     6h5+       0.0000    0.0000    0.0000   -0.0000    0.0000   -0.0001   -0.0000    0.0000   -0.0034   -0.0000
      170 NB     7h5+      -0.0000    0.0000    0.0000    0.0000    0.0000   -0.0001   -0.0000    0.0000   -0.0033   -0.0000

          Orbital           21        22        23        24        25        26    
          Energy           -0.7393   -0.7393   -0.7351   -0.4595   -0.2671   -0.2671
          Occ. No.          0.0000    0.0000    0.0000    0.0000    0.0000    0.0000

        1 NB     1s         0.0000   -0.0000   -0.0000    0.0000   -0.0000    0.0000
        2 NB     2s         0.0000    0.0000   -0.0000   -0.0000   -0.0000    0.0000
        3 NB     3s         0.0000   -0.0000    0.0000   -0.0001    0.0000   -0.0000
        4 NB     4s        -0.0000   -0.0000    0.0003    0.0436   -0.0000    0.0000
        5 NB     5s         0.0000   -0.0000   -0.0551    0.8653   -0.0000    0.0000
        6 NB     6s        -0.0000    0.0000    0.0290   -0.3834   -0.0000   -0.0000
        7 NB     7s        -0.0000   -0.0000   -0.0133    0.1767   -0.0000   -0.0000
        8 NB     8s        -0.0000   -0.0000   -0.0082    0.0941    0.0000   -0.0000
        9 NB     9s        -0.0000   -0.0000   -0.0011    0.0070    0.0000   -0.0000
       10 NB    10s         0.0000   -0.0000   -0.0000   -0.0004    0.0000   -0.0000
       11 NB     2px       -0.0000    0.0000   -0.0000   -0.0000   -0.0000    0.0000
       12 NB     3px        0.0000   -0.0001    0.0000    0.0000    0.0002   -0.0000
       13 NB     4px        0.0000   -0.0099    0.0000   -0.0000   -0.0676    0.0000
       14 NB     5px       -0.0000    0.0653   -0.0000   -0.0000   -0.9430    0.0001
       15 NB     6px        0.0000   -0.0308    0.0000    0.0000    0.1473   -0.0000
       16 NB     7px        0.0000   -0.0141    0.0000    0.0000    0.0755   -0.0000
       17 NB     8px       -0.0000    0.0029   -0.0000   -0.0000   -0.0082    0.0000
       18 NB     9px       -0.0000    0.0033   -0.0000   -0.0000   -0.0114    0.0000
       19 NB    10px       -0.0000    0.0006   -0.0000   -0.0000   -0.0019    0.0000
       20 NB     2py        0.0000    0.0000    0.0000   -0.0000    0.0000    0.0000
       21 NB     3py       -0.0001   -0.0000   -0.0000    0.0000   -0.0000   -0.0002
       22 NB     4py       -0.0099   -0.0000    0.0000   -0.0000    0.0000    0.0676
       23 NB     5py        0.0653    0.0000    0.0000   -0.0000    0.0001    0.9430
       24 NB     6py       -0.0308   -0.0000   -0.0000    0.0000   -0.0000   -0.1473
       25 NB     7py       -0.0141   -0.0000    0.0000    0.0000   -0.0000   -0.0755
       26 NB     8py        0.0029    0.0000    0.0000    0.0000    0.0000    0.0082
       27 NB     9py        0.0033    0.0000    0.0000   -0.0000    0.0000    0.0114
       28 NB    10py        0.0006    0.0000    0.0000    0.0000    0.0000    0.0019
       29 NB     2pz        0.0000   -0.0000   -0.0000    0.0000   -0.0000    0.0000
       30 NB     3pz        0.0000    0.0000   -0.0000   -0.0000    0.0000   -0.0000
       31 NB     4pz        0.0000    0.0000   -0.0027    0.0081   -0.0000    0.0000
       32 NB     5pz        0.0000   -0.0000   -0.0247    0.1649   -0.0000    0.0000
       33 NB     6pz       -0.0000    0.0000    0.0082   -0.0438    0.0000   -0.0000
       34 NB     7pz       -0.0000    0.0000    0.0072   -0.0275    0.0000    0.0000
       35 NB     8pz       -0.0000   -0.0000    0.0001   -0.0007   -0.0000    0.0000
       36 NB     9pz        0.0000   -0.0000   -0.0011    0.0024   -0.0000    0.0000
       37 NB    10pz        0.0000   -0.0000   -0.0002    0.0005   -0.0000    0.0000
       38 NB     3d2-       0.0006    0.0000    0.0000   -0.0000   -0.0000   -0.0001
       39 NB     4d2-       0.3461    0.0000    0.0000    0.0000    0.0000    0.0050
       40 NB     5d2-      -0.1021   -0.0000   -0.0000   -0.0000    0.0000    0.1214
       41 NB     6d2-       0.0072    0.0000    0.0000    0.0000    0.0000    0.0034
       42 NB     7d2-       0.0123    0.0000    0.0000    0.0000   -0.0000   -0.0275
       43 NB     8d2-      -0.0054   -0.0000   -0.0000   -0.0000    0.0000    0.0004
       44 NB     9d2-      -0.0060   -0.0000   -0.0000   -0.0000    0.0000    0.0060
       45 NB    10d2-       0.0009    0.0000    0.0000    0.0000   -0.0000   -0.0022
       46 NB     3d1-       0.0016    0.0000    0.0000    0.0000   -0.0000   -0.0002
       47 NB     4d1-       0.8919    0.0000    0.0000    0.0000    0.0000    0.0052
       48 NB     5d1-      -0.2562   -0.0000   -0.0000   -0.0000    0.0000    0.2217
       49 NB     6d1-       0.0161    0.0000    0.0000    0.0000    0.0000    0.0090
       50 NB     7d1-       0.0301    0.0000    0.0000    0.0000   -0.0000   -0.0467
       51 NB     8d1-      -0.0116   -0.0000   -0.0000   -0.0000   -0.0000   -0.0009
       52 NB     9d1-      -0.0135   -0.0000   -0.0000   -0.0000    0.0000    0.0084
       53 NB    10d1-       0.0019    0.0000    0.0000    0.0000   -0.0000   -0.0033
       54 NB     3d0       -0.0000    0.0000    0.0017    0.0001   -0.0000    0.0000
       55 NB     4d0       -0.0000    0.0000    0.9563    0.0465    0.0000    0.0000
       56 NB     5d0        0.0000   -0.0000   -0.2794   -0.0793    0.0000   -0.0000
       57 NB     6d0       -0.0000    0.0000    0.0188    0.0112    0.0000   -0.0000
       58 NB     7d0       -0.0000    0.0000    0.0329    0.0166   -0.0000    0.0000
       59 NB     8d0        0.0000   -0.0000   -0.0131   -0.0067   -0.0000    0.0000
       60 NB     9d0        0.0000   -0.0000   -0.0150   -0.0082    0.0000   -0.0000
       61 NB    10d0       -0.0000    0.0000    0.0021    0.0019   -0.0000    0.0000
       62 NB     3d1+      -0.0000    0.0016   -0.0000   -0.0000    0.0002   -0.0000
       63 NB     4d1+      -0.0000    0.8919   -0.0000   -0.0000   -0.0052    0.0000
       64 NB     5d1+       0.0000   -0.2562    0.0000    0.0000   -0.2217    0.0000
       65 NB     6d1+      -0.0000    0.0161   -0.0000   -0.0000   -0.0090    0.0000
       66 NB     7d1+      -0.0000    0.0301   -0.0000   -0.0000    0.0467   -0.0000
       67 NB     8d1+       0.0000   -0.0116    0.0000    0.0000    0.0009   -0.0000
       68 NB     9d1+       0.0000   -0.0135    0.0000    0.0000   -0.0084    0.0000
       69 NB    10d1+      -0.0000    0.0019   -0.0000   -0.0000    0.0033   -0.0000
       70 NB     3d2+       0.0000   -0.0006    0.0000   -0.0000   -0.0001    0.0000
       71 NB     4d2+       0.0000   -0.3461    0.0000   -0.0000    0.0050   -0.0000
       72 NB     5d2+      -0.0000    0.1021   -0.0000    0.0000    0.1214   -0.0000
       73 NB     6d2+       0.0000   -0.0072    0.0000   -0.0000    0.0034   -0.0000
       74 NB     7d2+       0.0000   -0.0123    0.0000   -0.0000   -0.0275    0.0000
       75 NB     8d2+      -0.0000    0.0054   -0.0000    0.0000    0.0004   -0.0000
       76 NB     9d2+      -0.0000    0.0060   -0.0000    0.0000    0.0060   -0.0000
       77 NB    10d2+       0.0000   -0.0009    0.0000   -0.0000   -0.0022    0.0000
       78 NB     4f3-      -0.0000    0.0000   -0.0000    0.0000    0.0000    0.0000
       79 NB     5f3-       0.0000    0.0000    0.0000   -0.0000   -0.0000   -0.0000
       80 NB     6f3-      -0.0000    0.0000    0.0000   -0.0000   -0.0000   -0.0000
       81 NB     7f3-      -0.0000    0.0000    0.0000   -0.0000   -0.0000   -0.0000
       82 NB     8f3-       0.0000   -0.0000   -0.0000    0.0000   -0.0000   -0.0000
       83 NB     4f2-       0.0277    0.0000    0.0000    0.0000   -0.0000   -0.0346
       84 NB     5f2-      -0.0158   -0.0000   -0.0000   -0.0000    0.0000    0.0311
       85 NB     6f2-       0.0001    0.0000    0.0000   -0.0000    0.0000    0.0113
       86 NB     7f2-       0.0041    0.0000    0.0000    0.0000   -0.0000   -0.0018
       87 NB     8f2-      -0.0028   -0.0000   -0.0000   -0.0000    0.0000    0.0069
       88 NB     4f1-       0.0123    0.0000    0.0000    0.0000   -0.0000   -0.0353
       89 NB     5f1-      -0.0031   -0.0000   -0.0000   -0.0000    0.0000    0.0336
       90 NB     6f1-       0.0014    0.0000   -0.0000   -0.0000    0.0000    0.0154
       91 NB     7f1-       0.0010    0.0000    0.0000    0.0000    0.0000    0.0022
       92 NB     8f1-       0.0000    0.0000    0.0000   -0.0000    0.0000    0.0033
       93 NB     4f0        0.0000    0.0000    0.0023   -0.0896    0.0000   -0.0000
       94 NB     5f0       -0.0000    0.0000    0.0034    0.0859   -0.0000    0.0000
       95 NB     6f0       -0.0000    0.0000    0.0014    0.0291   -0.0000    0.0000
       96 NB     7f0        0.0000    0.0000   -0.0010   -0.0070   -0.0000    0.0000
       97 NB     8f0       -0.0000    0.0000    0.0016    0.0189   -0.0000    0.0000
       98 NB     4f1+      -0.0000    0.0123   -0.0000   -0.0000    0.0353   -0.0000
       99 NB     5f1+       0.0000   -0.0031    0.0000    0.0000   -0.0336    0.0000
      100 NB     6f1+      -0.0000    0.0014   -0.0000    0.0000   -0.0154    0.0000
      101 NB     7f1+      -0.0000    0.0010   -0.0000   -0.0000   -0.0022    0.0000
      102 NB     8f1+      -0.0000    0.0000   -0.0000    0.0000   -0.0033    0.0000
      103 NB     4f2+       0.0000   -0.0277    0.0000   -0.0000   -0.0346    0.0000
      104 NB     5f2+      -0.0000    0.0158   -0.0000    0.0000    0.0311   -0.0000
      105 NB     6f2+       0.0000   -0.0001   -0.0000    0.0000    0.0113   -0.0000
      106 NB     7f2+       0.0000   -0.0041    0.0000    0.0000   -0.0018    0.0000
      107 NB     8f2+      -0.0000    0.0028   -0.0000    0.0000    0.0069   -0.0000
      108 NB     4f3+      -0.0000    0.0000    0.0162   -0.0514   -0.0000   -0.0000
      109 NB     5f3+       0.0000   -0.0000   -0.0099    0.0489    0.0000    0.0000
      110 NB     6f3+       0.0000    0.0000   -0.0003    0.0164    0.0000    0.0000
      111 NB     7f3+      -0.0000    0.0000    0.0024   -0.0041    0.0000   -0.0000
      112 NB     8f3+       0.0000   -0.0000   -0.0017    0.0107    0.0000    0.0000
      113 NB     5g4-       0.0036    0.0000    0.0000    0.0000   -0.0000   -0.0210
      114 NB     6g4-       0.0046    0.0000    0.0000    0.0000   -0.0000   -0.0365
      115 NB     7g4-       0.0021    0.0000    0.0000    0.0000   -0.0000   -0.0256
      116 NB     8g4-       0.0005    0.0000    0.0000    0.0000   -0.0000   -0.0089
      117 NB     5g3-       0.0000    0.0000    0.0000    0.0000   -0.0000   -0.0000
      118 NB     6g3-       0.0000    0.0000   -0.0000    0.0000   -0.0000   -0.0000
      119 NB     7g3-       0.0000    0.0000    0.0000    0.0000   -0.0000   -0.0000
      120 NB     8g3-       0.0000    0.0000   -0.0000    0.0000   -0.0000   -0.0000
      121 NB     5g2-      -0.0045   -0.0000   -0.0000   -0.0000   -0.0000   -0.0013
      122 NB     6g2-      -0.0053   -0.0000   -0.0000   -0.0000   -0.0000   -0.0025
      123 NB     7g2-      -0.0022   -0.0000   -0.0000   -0.0000   -0.0000   -0.0018
      124 NB     8g2-      -0.0004   -0.0000   -0.0000   -0.0000   -0.0000   -0.0006
      125 NB     5g1-      -0.0040   -0.0000   -0.0000    0.0000   -0.0000   -0.0262
      126 NB     6g1-      -0.0032   -0.0000   -0.0000    0.0000   -0.0000   -0.0463
      127 NB     7g1-      -0.0004   -0.0000    0.0000    0.0000   -0.0000   -0.0331
      128 NB     8g1-       0.0002    0.0000    0.0000    0.0000   -0.0000   -0.0116
      129 NB     5g0        0.0000   -0.0000   -0.0093   -0.0074    0.0000   -0.0000
      130 NB     6g0        0.0000   -0.0000   -0.0104   -0.0121    0.0000   -0.0000
      131 NB     7g0        0.0000   -0.0000   -0.0041   -0.0079    0.0000   -0.0000
      132 NB     8g0        0.0000   -0.0000   -0.0008   -0.0026    0.0000   -0.0000
      133 NB     5g1+       0.0000   -0.0040    0.0000    0.0000    0.0262   -0.0000
      134 NB     6g1+       0.0000   -0.0032    0.0000    0.0000    0.0463   -0.0000
      135 NB     7g1+       0.0000   -0.0004    0.0000    0.0000    0.0331   -0.0000
      136 NB     8g1+      -0.0000    0.0002   -0.0000    0.0000    0.0116   -0.0000
      137 NB     5g2+      -0.0000    0.0045   -0.0000   -0.0000   -0.0013    0.0000
      138 NB     6g2+      -0.0000    0.0053   -0.0000   -0.0000   -0.0025    0.0000
      139 NB     7g2+      -0.0000    0.0022   -0.0000   -0.0000   -0.0018    0.0000
      140 NB     8g2+      -0.0000    0.0004   -0.0000   -0.0000   -0.0006    0.0000
      141 NB     5g3+       0.0000   -0.0000   -0.0019    0.0133    0.0000    0.0000
      142 NB     6g3+       0.0000   -0.0000   -0.0027    0.0227    0.0000    0.0000
      143 NB     7g3+       0.0000   -0.0000   -0.0014    0.0153    0.0000    0.0000
      144 NB     8g3+       0.0000    0.0000   -0.0003    0.0051    0.0000    0.0000
      145 NB     5g4+      -0.0000    0.0036   -0.0000   -0.0000    0.0210   -0.0000
      146 NB     6g4+      -0.0000    0.0046   -0.0000   -0.0000    0.0365   -0.0000
      147 NB     7g4+      -0.0000    0.0021   -0.0000   -0.0000    0.0256   -0.0000
      148 NB     8g4+      -0.0000    0.0005   -0.0000   -0.0000    0.0089   -0.0000
      149 NB     6h5-      -0.0015   -0.0000   -0.0000   -0.0000    0.0000    0.0004
      150 NB     7h5-      -0.0015   -0.0000   -0.0000   -0.0000    0.0000    0.0004
      151 NB     6h4-      -0.0029   -0.0000   -0.0000   -0.0000    0.0000    0.0029
      152 NB     7h4-      -0.0030   -0.0000   -0.0000   -0.0000    0.0000    0.0035
      153 NB     6h3-      -0.0000    0.0000   -0.0000   -0.0000   -0.0000   -0.0000
      154 NB     7h3-      -0.0000   -0.0000    0.0000    0.0000   -0.0000   -0.0000
      155 NB     6h2-      -0.0017   -0.0000   -0.0000   -0.0000    0.0000    0.0010
      156 NB     7h2-      -0.0016   -0.0000   -0.0000   -0.0000    0.0000    0.0012
      157 NB     6h1-      -0.0050   -0.0000   -0.0000   -0.0000    0.0000    0.0004
      158 NB     7h1-      -0.0051   -0.0000   -0.0000   -0.0000    0.0000    0.0004
      159 NB     6h0        0.0000   -0.0000   -0.0063   -0.0013    0.0000   -0.0000
      160 NB     7h0        0.0000   -0.0000   -0.0063   -0.0016    0.0000   -0.0000
      161 NB     6h1+       0.0000   -0.0050    0.0000    0.0000   -0.0004    0.0000
      162 NB     7h1+       0.0000   -0.0051    0.0000    0.0000   -0.0004    0.0000
      163 NB     6h2+      -0.0000    0.0017   -0.0000    0.0000    0.0010   -0.0000
      164 NB     7h2+      -0.0000    0.0016   -0.0000    0.0000    0.0012   -0.0000
      165 NB     6h3+       0.0000   -0.0000   -0.0019   -0.0012   -0.0000   -0.0000
      166 NB     7h3+       0.0000   -0.0000   -0.0019   -0.0014   -0.0000   -0.0000
      167 NB     6h4+       0.0000   -0.0029    0.0000    0.0000   -0.0029    0.0000
      168 NB     7h4+       0.0000   -0.0030    0.0000    0.0000   -0.0035    0.0000
      169 NB     6h5+      -0.0000    0.0015   -0.0000    0.0000    0.0004   -0.0000
      170 NB     7h5+      -0.0000    0.0015   -0.0000    0.0000    0.0004   -0.0000
--


++    Molecular charges:
      ------------------

      Mulliken charges per centre and basis function type
      ---------------------------------------------------

                NB    
      1s       2.0000
      2s       2.0000
      2px      2.0000
      2pz      2.0000
      2py      2.0000
      3s       2.0000
      3px      2.0000
      3pz      2.0000
      3py      2.0000
      4s       1.9946
      3d2+     2.0000
      3d1+     2.0000
      3d0      2.0000
      3d1-     2.0000
      3d2-     2.0000
      4px      1.9851
      4pz      1.9842
      4py      1.9851
      5s       0.0022
      4d2+     0.0001
      4d1+     0.0004
      4d0      0.0000
      4d1-     0.0004
      4d2-     0.0001
      5px      0.0076
      5pz      0.0082
      5py      0.0076
      6s       0.0015
      4f3+     0.0000
      4f2+     0.0000
      4f1+     0.0000
      4f0      0.0000
      4f1-     0.0000
      4f2-     0.0000
      4f3-     0.0000
      5d2+     0.0000
      5d1+     0.0000
      5d0      0.0000
      5d1-     0.0000
      5d2-     0.0000
      6px      0.0066
      6pz      0.0073
      6py      0.0066
      7s       0.0017
      5f3+     0.0000
      5f2+     0.0000
      5f1+     0.0000
      5f0      0.0000
      5f1-     0.0000
      5f2-     0.0000
      5f3-     0.0000
      6d2+     0.0000
      6d1+     0.0000
      6d0      0.0000
      6d1-     0.0000
      6d2-     0.0000
      7px      0.0000
      7pz      0.0000
      7py      0.0000
      5g4+     0.0000
      5g3+     0.0000
      5g2+     0.0000
      5g1+     0.0000
      5g0      0.0000
      5g1-     0.0000
      5g2-     0.0000
      5g3-     0.0000
      5g4-     0.0000
      6f3+     0.0000
      6f2+     0.0000
      6f1+     0.0000
      6f0      0.0000
      6f1-     0.0000
      6f2-     0.0000
      6f3-     0.0000
      6g4+     0.0000
      6g3+     0.0000
      6g2+     0.0000
      6g1+     0.0000
      6g0      0.0000
      6g1-     0.0000
      6g2-     0.0000
      6g3-     0.0000
      6g4-     0.0000
      6h5+     0.0000
      6h4+     0.0000
      6h3+     0.0000
      6h2+     0.0000
      6h1+     0.0000
      6h0      0.0000
      6h1-     0.0000
      6h2-     0.0000
      6h3-     0.0000
      6h4-     0.0000
      6h5-     0.0000
      7d2+     0.0000
      7d1+     0.0000
      7d0      0.0000
      7d1-     0.0000
      7d2-     0.0000
      7f3+     0.0000
      7f2+     0.0000
      7f1+     0.0000
      7f0      0.0000
      7f1-     0.0000
      7f2-     0.0000
      7f3-     0.0000
      7g4+     0.0000
      7g3+     0.0000
      7g2+     0.0000
      7g1+     0.0000
      7g0      0.0000
      7g1-     0.0000
      7g2-     0.0000
      7g3-     0.0000
      7g4-     0.0000
      7h5+     0.0000
      7h4+     0.0000
      7h3+     0.0000
      7h2+     0.0000
      7h1+     0.0000
      7h0      0.0000
      7h1-     0.0000
      7h2-     0.0000
      7h3-     0.0000
      7h4-     0.0000
      7h5-     0.0000
      8s       0.0000
      8px      0.0002
      8pz      0.0002
      8py      0.0002
      8d2+     0.0000
      8d1+     0.0000
      8d0      0.0000
      8d1-     0.0000
      8d2-     0.0000
      8f3+     0.0000
      8f2+     0.0000
      8f1+     0.0000
      8f0      0.0000
      8f1-     0.0000
      8f2-     0.0000
      8f3-     0.0000
      8g4+     0.0000
      8g3+     0.0000
      8g2+     0.0000
      8g1+     0.0000
      8g0      0.0000
      8g1-     0.0000
      8g2-     0.0000
      8g3-     0.0000
      8g4-     0.0000
      9s       0.0000
      9px      0.0000
      9pz      0.0000
      9py      0.0000
      9d2+     0.0000
      9d1+     0.0000
      9d0      0.0000
      9d1-     0.0000
      9d2-     0.0000
     10s       0.0000
     10px      0.0000
     10pz      0.0000
     10py      0.0000
     10d2+     0.0000
     10d1+     0.0000
     10d0      0.0000
     10d1-     0.0000
     10d2-     0.0000
      Total   36.0000

      N-E      5.0000

      Total electronic charge=   36.000000

      Total            charge=    5.000000
--

 Sorry, Molden does not know how to handle
 functions with angular momentum larger than g

++    Static properties:
      ------------------


      LoProp Charges per center


                   NB    
      Nuclear     41.0000
      Electronic -36.0000

      Total        5.0000
--


++    Molecular properties:
      ---------------------

      Charge (e):
                      =    5.0000
      Dipole Moment (Debye):
      Origin of the operator (Ang)=    0.0000    0.0000    0.0000
                   X=  4.6733E-09               Y= -1.3986E-12               Z= -2.0126E-01           Total=  2.0126E-01
      Center of Charge (Ang)
                     X=    0.00000000               Y=   -0.00000000               Z=   -0.00838033
      Quadrupole Moment (Debye*Ang):
      Origin of the operator (Ang)=    0.0000    0.0000    0.0000
                  XX= -7.8636E+00              XY= -4.4121E-14              XZ= -8.1617E-10              YY= -7.8636E+00
                  YZ= -8.3474E-14              ZZ= -7.8061E+00
      In traceless form (Debye*Ang)
                  XX= -2.8759E-02              XY= -6.6181E-14              XZ= -1.2243E-09              YY= -2.8759E-02
                  YZ= -1.2521E-13              ZZ=  5.7518E-02
--

 Sorry, Molden does not know how to handle
 functions with angular momentum larger than g
 ###############################################################################
 ###############################################################################
 ###                                                                         ###
 ###                                                                         ###
 ###    WARNING: RunFile label nBas                                          ###
 ###    was used       62 times                                              ###
 ###                                                                         ###
 ###                                                                         ###
 ###############################################################################
 ###############################################################################
Note: The following floating-point exceptions are signalling: IEEE_UNDERFLOW_FLAG IEEE_DENORMAL
--- Stop Module: scf at Thu Jan  9 00:51:31 2025 /rc=_RC_ALL_IS_WELL_ ---
*** files: niobium_so_cf.LprOrb niobium_so_cf.ScfOrb xmldump
    saved to directory /home4/s4752295/Internship/Initial_simulations/Point_charge_model/1_electron/active_space_9_non_rel/Nb/varying_bond_length
--- Module scf spent 6 seconds ---

*** symbolic link created: INPORB -> niobium_so_cf.ScfOrb
--- Start Module: rasscf at Thu Jan  9 00:51:31 2025 ---

()()()()()()()()()()()()()()()()()()()()()()()()()()()()()()()()()()()()()()()()()()()()()()()()()()

                                              &RASSCF

                                   only a single process is used
                       available to each process: 4.1 GB of memory, 1 thread?
                                            pid: 913855
[...]
         1   13       6.83507105E-02  4.14604066E+04  5.62581549E+08  5.88792538E+03  5.62628898E+08
         1   15       7.89666102E-02  5.62581557E+08  4.14604060E+04  8.73906639E+07  6.50013681E+08
         1   17       2.11729913E-02  1.56855464E+04  2.22489083E+08  1.93783572E-13  2.22504768E+08
         2    6       1.66916710E-05  2.17107419E-02  1.77733100E+02  1.76057747E-04  1.77754987E+02
         2    8       1.71933085E-05  1.77733103E+02  2.17107415E-02  5.34227301E+00  1.83097086E+02
         2   14       6.83507105E-02  4.14604066E+04  5.62581549E+08  5.88792538E+03  5.62628898E+08
         2   16       7.89666102E-02  5.62581557E+08  4.14604060E+04  8.73906639E+07  6.50013681E+08
         2   18       2.11729913E-02  1.56855464E+04  2.22489083E+08  1.93783572E-13  2.22504768E+08
         3    5       1.71933082E-05  1.77733100E+02  2.17107418E-02  5.34227286E+00  1.83097084E+02
         3    7       1.66916706E-05  2.17107425E-02  1.77733096E+02  1.76057757E-04  1.77754983E+02
         3   13       7.89666112E-02  5.62581557E+08  4.14604063E+04  8.73906710E+07  6.50013688E+08
         3   15       6.83507096E-02  4.14604070E+04  5.62581543E+08  5.88792490E+03  5.62628892E+08
         3   17       2.11729916E-02  2.22489086E+08  1.56855460E+04  3.23026763E-11  2.22504771E+08
         4    6       1.71933082E-05  1.77733100E+02  2.17107418E-02  5.34227286E+00  1.83097084E+02
         4    8       1.66916706E-05  2.17107425E-02  1.77733096E+02  1.76057757E-04  1.77754983E+02
         4   14       7.89666112E-02  5.62581557E+08  4.14604063E+04  8.73906710E+07  6.50013688E+08
         4   16       6.83507096E-02  4.14604070E+04  5.62581543E+08  5.88792490E+03  5.62628892E+08
         4   18       2.11729916E-02  2.22489086E+08  1.56855460E+04  3.23026763E-11  2.22504771E+08
         5   11       1.14297279E-02  3.15364216E+07  2.22405063E+02  4.80433582E-09  3.15366440E+07
         5   13       5.72954737E-02  5.61035607E+07  4.53734021E+02  3.82206438E+08  4.38310453E+08
         5   15       7.33415980E-03  4.53733992E+02  5.61035521E+07  2.32689767E+03  5.61063327E+07
         5   17       5.88082723E-02  5.79285545E+08  4.08530953E+03  2.50116086E-07  5.79289630E+08
         6   12       1.14297279E-02  3.15364216E+07  2.22405063E+02  4.80433582E-09  3.15366440E+07
         6   14       5.72954737E-02  5.61035607E+07  4.53734021E+02  3.82206438E+08  4.38310453E+08
         6   16       7.33415980E-03  4.53733992E+02  5.61035521E+07  2.32689767E+03  5.61063327E+07
         6   18       5.88082723E-02  5.79285545E+08  4.08530953E+03  2.50116086E-07  5.79289630E+08
         7   11       1.14297278E-02  2.22405067E+02  3.15364212E+07  8.92640810E-14  3.15366436E+07
         7   13       7.33416014E-03  4.53734154E+02  5.61035546E+07  2.32689762E+03  5.61063352E+07
         7   15       5.72954736E-02  5.61035524E+07  4.53733924E+02  3.82206447E+08  4.38310453E+08
         7   17       5.88082728E-02  4.08530947E+03  5.79285549E+08  1.19247028E-11  5.79289634E+08
         8   12       1.14297278E-02  2.22405067E+02  3.15364212E+07  8.92640810E-14  3.15366436E+07
         8   14       7.33416014E-03  4.53734154E+02  5.61035546E+07  2.32689762E+03  5.61063352E+07
         8   16       5.72954736E-02  5.61035524E+07  4.53733924E+02  3.82206447E+08  4.38310453E+08
         8   18       5.88082728E-02  4.08530947E+03  5.79285549E+08  1.19247028E-11  5.79289634E+08
         9   11       3.89441998E-04  1.01006268E-08  3.25897055E-13  1.04447084E+06  1.04447084E+06
         9   13       4.60782551E-02  3.46558014E+08  1.22773741E+01  1.09012134E-07  3.46558027E+08
         9   15       4.60782571E-02  1.22773758E+01  3.46558030E+08  4.66545297E-12  3.46558042E+08
         9   17       5.26166519E-02  1.23993152E-07  7.35080032E-12  5.10597605E+08  5.10597605E+08
        10   12       3.89441998E-04  1.01006268E-08  3.25897055E-13  1.04447084E+06  1.04447084E+06
        10   14       4.60782551E-02  3.46558014E+08  1.22773741E+01  1.09012134E-07  3.46558027E+08
        10   16       4.60782571E-02  1.22773758E+01  3.46558030E+08  4.66545297E-12  3.46558042E+08
        10   18       5.26166519E-02  1.23993152E-07  7.35080032E-12  5.10597605E+08  5.10597605E+08
        11   13       3.80166575E-01  4.64013503E+08  1.64384242E+01  2.23598487E-08  4.64013519E+08
        11   15       3.80166575E-01  1.64384243E+01  4.64013506E+08  1.54612991E-13  4.64013522E+08
        11   17       3.81100691E-01  5.36395641E-08  4.21722482E-13  8.31911533E+08  8.31911533E+08
        12   14       3.80166575E-01  4.64013503E+08  1.64384242E+01  2.23598487E-08  4.64013519E+08
        12   16       3.80166575E-01  1.64384243E+01  4.64013506E+08  1.54612991E-13  4.64013522E+08
        12   18       3.81100691E-01  5.36395641E-08  4.21722482E-13  8.31911533E+08  8.31911533E+08
        13   17       2.19513503E-03  3.04889071E+05  1.08011885E-02  3.94240747E-10  3.04889082E+05
        14   18       2.19513503E-03  3.04889071E+05  1.08011885E-02  3.94240747E-10  3.04889082E+05
        15   17       2.19513498E-03  1.08011818E-02  3.04889060E+05  2.93621665E-15  3.04889070E+05
        16   18       2.19513498E-03  1.08011818E-02  3.04889060E+05  2.93621665E-15  3.04889070E+05
     -----------------------------------------------------------------------------------------------
--

++ Velocity transition strengths (SO states):
   ------------------------------------------
    for osc. strength at least    1.0000000000000001E-005

      From   To        Osc. strength     Einstein coefficients Ax, Ay, Az (sec-1)    Total A (sec-1)
     -----------------------------------------------------------------------------------------------
         1    5       6.89832043E-05  8.97256297E-02  7.34531028E+02  6.18829835E-03  7.34626942E+02
         1    7       8.66153100E-05  7.34531009E+02  8.97256202E-02  1.87776840E+02  9.22397574E+02
         1   11       1.26357574E-05  2.77264570E+00  3.93281555E+04  4.05511129E-14  3.93309282E+04
         1   13       5.67841806E-02  3.44444609E+04  4.67381286E+08  4.89745181E+03  4.67420628E+08
         1   15       6.56142308E-02  4.67381292E+08  3.44444604E+04  7.26897060E+07  5.40105443E+08
         1   17       1.82843008E-02  1.35455705E+04  1.92134942E+08  2.11323736E-13  1.92148487E+08
         2    6       6.89832043E-05  8.97256297E-02  7.34531028E+02  6.18829835E-03  7.34626942E+02
         2    8       8.66153100E-05  7.34531009E+02  8.97256202E-02  1.87776840E+02  9.22397574E+02
         2   12       1.26357574E-05  2.77264570E+00  3.93281555E+04  4.05511129E-14  3.93309282E+04
         2   14       5.67841806E-02  3.44444609E+04  4.67381286E+08  4.89745181E+03  4.67420628E+08
         2   16       6.56142308E-02  4.67381292E+08  3.44444604E+04  7.26897060E+07  5.40105443E+08
         2   18       1.82843008E-02  1.35455705E+04  1.92134942E+08  2.11323736E-13  1.92148487E+08
         3    5       8.66153140E-05  7.34531013E+02  8.97256283E-02  1.87776878E+02  9.22397617E+02
         3    7       6.89831997E-05  8.97256215E-02  7.34530979E+02  6.18829673E-03  7.34626893E+02
         3   11       1.26357562E-05  3.93281520E+04  2.77264603E+00  2.25188594E-10  3.93309246E+04
         3   13       6.56142317E-02  4.67381293E+08  3.44444606E+04  7.26897120E+07  5.40105449E+08
         3   15       5.67841799E-02  3.44444612E+04  4.67381281E+08  4.89745141E+03  4.67420623E+08
         3   17       1.82843011E-02  1.92134945E+08  1.35455701E+04  9.09154806E-15  1.92148490E+08
         4    6       8.66153140E-05  7.34531013E+02  8.97256283E-02  1.87776878E+02  9.22397617E+02
         4    8       6.89831997E-05  8.97256215E-02  7.34530979E+02  6.18829673E-03  7.34626893E+02
         4   12       1.26357562E-05  3.93281520E+04  2.77264603E+00  2.25188594E-10  3.93309246E+04
         4   14       6.56142317E-02  4.67381293E+08  3.44444606E+04  7.26897120E+07  5.40105449E+08
         4   16       5.67841799E-02  3.44444612E+04  4.67381281E+08  4.89745141E+03  4.67420623E+08
         4   18       1.82843011E-02  1.92134945E+08  1.35455701E+04  9.09154806E-15  1.92148490E+08
         5    9       6.21822981E-04  3.40649820E+02  2.40237336E-03  4.22466755E-13  3.40652222E+02
         5   11       9.72856493E-03  2.68427380E+07  1.89303688E+02  4.88722952E-09  2.68429273E+07
         5   13       4.69924974E-02  4.56180055E+07  3.68932751E+02  3.13875546E+08  3.59493920E+08
         5   15       5.96341323E-03  3.68932726E+02  4.56179983E+07  1.91089475E+03  4.56202781E+07
         5   17       4.96436637E-02  4.89012100E+08  3.44867193E+03  2.06354643E-07  4.89015549E+08
         6   10       6.21822981E-04  3.40649820E+02  2.40237336E-03  4.22466755E-13  3.40652222E+02
         6   12       9.72856493E-03  2.68427380E+07  1.89303688E+02  4.88722952E-09  2.68429273E+07
         6   14       4.69924974E-02  4.56180055E+07  3.68932751E+02  3.13875546E+08  3.59493920E+08
         6   16       5.96341323E-03  3.68932726E+02  4.56179983E+07  1.91089475E+03  4.56202781E+07
         6   18       4.96436637E-02  4.89012100E+08  3.44867193E+03  2.06354643E-07  4.89015549E+08
         7    9       6.21823003E-04  2.40237278E-03  3.40649832E+02  3.72272303E-18  3.40652234E+02
         7   11       9.72856481E-03  1.89303688E+02  2.68427377E+07  1.37121683E-13  2.68429270E+07
         7   13       5.96341352E-03  3.68932861E+02  4.56180005E+07  1.91089471E+03  4.56202803E+07
         7   15       4.69924974E-02  4.56179987E+07  3.68932671E+02  3.13875553E+08  3.59493921E+08
         7   17       4.96436641E-02  3.44867188E+03  4.89012104E+08  1.00928156E-11  4.89015553E+08
         8   10       6.21823003E-04  2.40237278E-03  3.40649832E+02  3.72272303E-18  3.40652234E+02
         8   12       9.72856481E-03  1.89303688E+02  2.68427377E+07  1.37121683E-13  2.68429270E+07
         8   14       5.96341352E-03  3.68932861E+02  4.56180005E+07  1.91089471E+03  4.56202803E+07
         8   16       4.69924974E-02  4.56179987E+07  3.68932671E+02  3.13875553E+08  3.59493921E+08
         8   18       4.96436641E-02  3.44867188E+03  4.89012104E+08  1.00928156E-11  4.89015553E+08
         9   11       5.75199046E-04  8.76799917E-09  3.45559390E-13  1.54267060E+06  1.54267060E+06
         9   13       3.96871646E-02  2.98491181E+08  1.05745295E+01  9.24550926E-08  2.98491192E+08
         9   15       3.96871663E-02  1.05745307E+01  2.98491194E+08  3.87432912E-12  2.98491205E+08
         9   17       4.30938104E-02  1.01337257E-07  6.64371972E-12  4.18188389E+08  4.18188389E+08
        10   12       5.75199046E-04  8.76799917E-09  3.45559390E-13  1.54267060E+06  1.54267060E+06
        10   14       3.96871646E-02  2.98491181E+08  1.05745295E+01  9.24550926E-08  2.98491192E+08
        10   16       3.96871663E-02  1.05745307E+01  2.98491194E+08  3.87432912E-12  2.98491205E+08
        10   18       4.30938104E-02  1.01337257E-07  6.64371972E-12  4.18188389E+08  4.18188389E+08
        11   13       3.56504035E-01  4.35133629E+08  1.54153083E+01  2.11638202E-08  4.35133645E+08
        11   15       3.56504035E-01  1.54153083E+01  4.35133632E+08  2.42698258E-13  4.35133647E+08
        11   17       3.61188888E-01  5.03079463E-08  2.17809484E-13  7.88448442E+08  7.88448442E+08
        12   14       3.56504035E-01  4.35133629E+08  1.54153083E+01  2.11638202E-08  4.35133645E+08
        12   16       3.56504035E-01  1.54153083E+01  4.35133632E+08  2.42698258E-13  4.35133647E+08
        12   18       3.61188888E-01  5.03079463E-08  2.17809484E-13  7.88448442E+08  7.88448442E+08
        13   17       2.00185367E-03  2.78044595E+05  9.85017860E-03  3.13720794E-10  2.78044605E+05
        14   18       2.00185367E-03  2.78044595E+05  9.85017860E-03  3.13720794E-10  2.78044605E+05
        15   17       2.00185363E-03  9.85017421E-03  2.78044584E+05  2.37569070E-16  2.78044594E+05
        16   18       2.00185363E-03  9.85017421E-03  2.78044584E+05  2.37569070E-16  2.78044594E+05
     -----------------------------------------------------------------------------------------------
--

++ Length and velocity gauge comparison (SO states):

 --------------------------------------------------
 A comparison between the dipole oscillator strengths in 
 length and velocity gauge will be performed

 All dipole oscillator differences above the tolerance of   0.10000000000000001       will be printed 

 Due to basis set deficiency these oscillator may be problematic 

 The tolerance is defined as ABS(1-O_l/O_v) 
 O_l : dipole oscillator strength in length gauge
 O_p : dipole oscillator strength in velocity gauge
 --------------------------------------------------

  Problematic transitions have been found

      From   To       Difference (%) Osc. st. (len.) Osc. st. (vel.)
     ---------------------------------------------------------------
         1    5            75.803283  1.66916710E-05  6.89832043E-05
         1    7            80.149804  1.71933085E-05  8.66153100E-05
         1   11      --------------- below threshold  1.26357574E-05
         1   13            20.369282  6.83507105E-02  5.67841806E-02
         1   15            20.349822  7.89666102E-02  6.56142308E-02
         1   17            15.798748  2.11729913E-02  1.82843008E-02
         2    6            75.803283  1.66916710E-05  6.89832043E-05
         2    8            80.149804  1.71933085E-05  8.66153100E-05
         2   12      --------------- below threshold  1.26357574E-05
         2   14            20.369282  6.83507105E-02  5.67841806E-02
         2   16            20.349822  7.89666102E-02  6.56142308E-02
         2   18            15.798748  2.11729913E-02  1.82843008E-02
         3    5            80.149806  1.71933082E-05  8.66153140E-05
         3    7            75.803282  1.66916706E-05  6.89831997E-05
         3   11      --------------- below threshold  1.26357562E-05
         3   13            20.349822  7.89666112E-02  6.56142317E-02
         3   15            20.369282  6.83507096E-02  5.67841799E-02
         3   17            15.798748  2.11729916E-02  1.82843011E-02
         4    6            80.149806  1.71933082E-05  8.66153140E-05
         4    8            75.803282  1.66916706E-05  6.89831997E-05
         4   12      --------------- below threshold  1.26357562E-05
         4   14            20.349822  7.89666112E-02  6.56142317E-02
         4   16            20.369282  6.83507096E-02  5.67841799E-02
         4   18            15.798748  2.11729916E-02  1.82843011E-02
         5    9      --------------- below threshold  6.21822981E-04
         5   11            17.486269  1.14297279E-02  9.72856493E-03
         5   13            21.924726  5.72954737E-02  4.69924974E-02
         5   15            22.985940  7.33415980E-03  5.96341323E-03
         5   17            18.460782  5.88082723E-02  4.96436637E-02
         6   10      --------------- below threshold  6.21822981E-04
         6   12            17.486269  1.14297279E-02  9.72856493E-03
         6   14            21.924726  5.72954737E-02  4.69924974E-02
         6   16            22.985940  7.33415980E-03  5.96341323E-03
         6   18            18.460782  5.88082723E-02  4.96436637E-02
         7    9      --------------- below threshold  6.21823003E-04
         7   11            17.486268  1.14297278E-02  9.72856481E-03
         7   13            22.985939  7.33416014E-03  5.96341352E-03
         7   15            21.924726  5.72954736E-02  4.69924974E-02
         7   17            18.460782  5.88082728E-02  4.96436641E-02
         8   10      --------------- below threshold  6.21823003E-04
         8   12            17.486268  1.14297278E-02  9.72856481E-03
         8   14            22.985939  7.33416014E-03  5.96341352E-03
         8   16            21.924726  5.72954736E-02  4.69924974E-02
         8   18            18.460782  5.88082728E-02  4.96436641E-02
         9   11            32.294394  3.89441998E-04  5.75199046E-04
         9   13            16.103671  4.60782551E-02  3.96871646E-02
         9   15            16.103671  4.60782571E-02  3.96871663E-02
         9   17            22.097933  5.26166519E-02  4.30938104E-02
        10   12            32.294394  3.89441998E-04  5.75199046E-04
        10   14            16.103671  4.60782551E-02  3.96871646E-02
        10   16            16.103671  4.60782571E-02  3.96871663E-02
        10   18            22.097933  5.26166519E-02  4.30938104E-02
     ---------------------------------------------------------------

 Number of problematic transitions =                    52

--

 Electric-dipole - electric-octupole not included
++ I/O STATISTICS
 
  I. General I/O information
  - - - - - - - - - - - - - - - - - - - - - - - - - - - - - - - - - - - - - - - - - - -
  Unit  Name          Flsize      Write/Read            MBytes           Write/Read
                      (MBytes)       Calls              In/Out           Time, sec.
  - - - - - - - - - - - - - - - - - - - - - - - - - - - - - - - - - - - - - - - - - - -
   1  SCRATCH           0.00 .       9/      45 .      0.0/      0.0 .       0/       0
   2  ANNI              0.00 .       0/       0 .      0.0/      0.0 .       0/       0
   3  RUNFILE          14.67 .     322/    9977 .      2.3/     72.4 .       0/       0
   4  ONEINT            5.14 .       0/   22237 .      0.0/   3722.5 .       0/       0
   5  JOBIPH            5.92 .       0/      92 .      0.0/      0.7 .       0/       0
   6  ORDINT          403.03 .       1/    3225 .      0.0/    806.0 .       0/       0
  - - - - - - - - - - - - - - - - - - - - - - - - - - - - - - - - - - - - - - - - - - -
   *  TOTAL           428.76 .     332/   35576 .      2.3/   4601.6 .       0/       0
  - - - - - - - - - - - - - - - - - - - - - - - - - - - - - - - - - - - - - - - - - - -
 
  II. I/O Access Patterns
  - - - - - - - - - - - - - - - - - - - -
  Unit  Name               % of random
                         Write/Read calls
  - - - - - - - - - - - - - - - - - - - -
   1  SCRATCH             88.9/ 100.0
   2  ANNI                 0.0/   0.0
   3  RUNFILE             28.6/  10.8
   4  ONEINT               0.0/  17.4
   5  JOBIPH               0.0/  76.1
   6  ORDINT             100.0/   0.1
  - - - - - - - - - - - - - - - - - - - -
--
--- Stop Module: rassi at Thu Jan  9 00:52:01 2025 /rc=_RC_ALL_IS_WELL_ ---
*** files: xmldump
    saved to directory /home4/s4752295/Internship/Initial_simulations/Point_charge_model/1_electron/active_space_9_non_rel/Nb/varying_bond_length
--- Module rassi spent 2 seconds ---

.##################.
.# Happy landing! #.
.##################.

    Timing: Wall=44.67 User=35.16 System=8.21

###############################################################################
Hbrk Cluster
Job 14530275 for user s4752295
Finished at: Thu Jan  9 00:52:01 CET 2025

Job details:
============

Job ID                         : 14530275
Name                           : Nb_no_c_light
User                           : s4752295
Partition                      : regularmedium
Nodes                          : node91
Number of Nodes                : 1
Cores                          : 1
Number of Tasks                : 1
State                          : COMPLETED  
Submit                         : 2025-01-09T00:51:12
Start                          : 2025-01-09T00:51:13
End                            : 2025-01-09T00:52:01
Reserved walltime              : 15:00:00
Used walltime                  : 00:00:48
Used CPU time                  : 00:00:44 (Efficiency: 92.46%)
% User (Computation)           : 80.94%
% System (I/O)                 : 19.06%
Total memory reserved          : 25000M
Maximum memory used            : 1.62G

Acknowledgements:
=================

Please see this page for information about acknowledging Hbrk in your publications:

https://wiki.hpc.rug.nl/habrok/introduction/scientific_output

################################################################################
