   This run of MOLCAS is using the pymolcas driver

                             OPE
                             OPE          NMOL  CASOP  ENMOLC A   SO
                 OPE        NMOLC        AS  OP EN  MO LC     AS  OP
                OPENM       OL CA        SO  PE NM  OL CA     SOP EN
                OP EN      MO   LC       AS  OP ENMOL  CASO   PENMOL
                OP  EN     MO   LC       AS  OP EN     MO     LC ASO
               OP   E  NMOL  C  AS       OP  EN MO     LC     AS  OP
               OP  E   NMO   LC AS        OPEN  MO     LCASOP EN   M
               O  PEN   MO  LCA  SO
            OPE   NMO   L   CAS    OP
        OPENMOL  CASOP     ENMOL   CASOPE
     OPENMOLCA   SOPENMOLCASOPEN   MOLCASOPE
    OPENMOLCAS   OP           EN   MOL    CAS
    OPENMOLCAS       OP  ENM        O     LCA
    OPENMOLCAS    OPEN  MOLCASO     P  E  NMO
    OPENMOLCAS     OP               E  N  MOL
    OPENMOLCA   SO           PENM   O  L  CAS    OPEN    MO    LCAS
    OPENMOLCA   SOP           ENM   O  L  CAS   OP  EN  MOLC  AS   O
    OPENMOLCA   SOPE           NM      O  LCA   S      OP  EN MO
    OPENMOLC                AS         O  PEN   M      OL  CA  SOPE
    OPENMO        LCASOPE  NMOL        C  ASO   P      ENMOLC     AS
    OPE     NMO      LCA  SO     P     E   NM   OL  CA SO  PE N   MO
          OPENMOLCA            SOPE   NMO        LCAS  O    P  ENMO
     OPENMOLCASOPENMOLCASOPENMOLCASOPENMOLCA
        OPENMOLCASOPENMOLCASOPENMOLCASOPE
            OPENMOLCASOPENMOLCASOPENM
               OPENMOLCASOPENMOLCA        version: o91e1abe7de707b ?
                   OPENMOLCASO
                       OPE                tag:

 OpenMolcas is free software; you can redistribute it and/or modify it
 under the terms of the GNU Lesser General Public License version 2.1.
 OpenMolcas is distributed in the hope that it will be useful, but it
 is provided "as is" and without any express or implied warranties.
 For more details see the full text of the license in the file
 LICENSE or in <http://www.gnu.org/licenses/>.

                 Copyright (C) The OpenMolcas Authors
           For the author list and the recommended citation,
                   consult the file CONTRIBUTORS.md

           *************************************************
           * pymolcas version py2.10                       *
           *   build 3068ae8b88c9345ec6cfef6fef7f1169      *
           *   (after the EMIL interpreter by V. Veryazov) *
           *************************************************

configuration info
------------------
Host name: login1 (Linux)
C Compiler ID: GNU
C flags: -std=gnu99
Fortran Compiler ID: GNU
Fortran flags: -fno-aggressive-loop-optimizations -cpp -fdefault-integer-8 -fmax-stack-var-size=1048576
Definitions: _MOLCAS_;_I8_;_LINUX_;_MKL_
Parallel: OFF (GA=OFF)


   ----------------------------------------------------------------------------------------------------------------------------------------------
  |
  |           Project: niobium_so_cf
  |    Submitted from: /home4/s4752295/Internship/Initial_simulations/Point_charge_model/1_electron/active_space_9_non_rel/Nb/varying_bond_length
  |      Scratch area: /tmp/niobium_so_cf
  |   Save outputs to: /home4/s4752295/Internship/Initial_simulations/Point_charge_model/1_electron/active_space_9_non_rel/Nb/varying_bond_length
  |            Molcas: /home4/s4752295/Internship/Molcas/recomp_try/OpenMolcas-master/build
  |
  | Scratch area is empty
  |
  |    MOLCAS_DRIVER = /home4/s4752295/Internship/Molcas/bin/pymolcas
  |    MOLCAS_NPROCS = 1
  |    MOLCAS_SOURCE = /home4/s4752295/Internship/Molcas/recomp_try/OpenMolcas-master
  | MOLCAS_STRUCTURE = 0
  |
   ----------------------------------------------------------------------------------------------------------------------------------------------

++ ---------   Input file   ---------

&SEWARD
AMFi

CLIG
$R

Basis Set
Nb.ANO-rcc.Roos.21s18p13d6f4g2h.10s9p8d5f4g2h.
Spherical d
Nb            0.0       0.0     0.0
End of Basis

Xfield

4
0.000000,   0.0000,  17.010     -1.0
14.731092,   0.0000,  -8.505    -1.0
-7.365546,  12.7575,  -8.505    -1.0
-7.365546, -12.7575,  -8.505    -1.0

End of input

&SCF
Occupied
18
Iterations
   50  100
End of Input

&RASSCF
LumOrb
Symmetry
1
Spin
2
Nactel
1 0 0
CIRoot
9 9 1
inactive
18
ras2
9
Alter
4
1 19 24
1 20 25
1 21 26
1 22 27
End of Input

>>> COPY niobium_so_cf.JobIph $SLURM_SUBMIT_DIR/niobium_so_cf.doublet.JobIph

>>> COPY $SLURM_SUBMIT_DIR/niobium_so_cf.doublet.JobIph ./JOB002

&RASSI
NROFJobIph
1 All
SpinOrbit
End of Input

EOF

-- ----------------------------------

--- Start Module: seward at Mon Dec 23 16:05:59 2024 ---

()()()()()()()()()()()()()()()()()()()()()()()()()()()()()()()()()()()()()()()()()()()()()()()()()()

                                              &SEWARD

                                   only a single process is used
                       available to each process: 4.1 GB of memory, 1 thread?
                                            pid: 873366
()()()()()()()()()()()()()()()()()()()()()()()()()()()()()()()()()()()()()()()()()()()()()()()()()()

 The speed of LIGHT in this CALCULATION =   137.03599917700001     
               SEWARD will generate:
                  Multipole Moment integrals up to order  2
                  Kinetic Energy integrals
                  Nuclear Attraction integrals (point charge)
                  One-Electron Hamiltonian integrals
                  Velocity integrals
                  Relativistic Douglas-Kroll-Hess integrals:
                    - Parametrization         : EXP
                    - DKH order of Hamiltonian: 2
                    - DKH order of Properties : 0
                         - multipole moment operators
                         - electric potential operators
                         - contact operators
                  External field from     4 point(s) added to the one-electron Hamiltonian
                  Orbital angular momentum around ( 0.0000  0.0000  0.0000 )
                  Velocity quadrupole around ( 0.0000  0.0000  0.0000 )
                  Atomic mean-field integrals
                  Two-Electron Repulsion integrals

                   Integrals are discarded if absolute value <: 0.10E-13
                   Integral cutoff threshold is set to       <: 0.10E-15

++    Symmetry information:
      ---------------------

                    Character Table for C1 

                             E  
                    a        1  x, y, xy, Rz, z, xz, Ry, yz, Rx, I
--


++    Basis set information:
      ----------------------


      Basis set label: NB.ANO-RCC.ROOS.21S18P13D6F4G2H.10S9P8D5F4G2H......

      Electronic valence basis set:
      ------------------
      Associated Effective Charge  41.000000 au
      Associated Actual Charge     41.000000 au
      Nuclear Model: Point charge

      Shell  nPrim  nBasis  Cartesian Spherical Contaminant
         s      21      10        X                  
         p      18       9        X                  
         d      13       8                 X         
         f       6       5                 X         
         g       4       4                 X         
         h       2       2                 X         
--


++    Molecular structure info:
      -------------------------

                    ************************************************ 
                    **** Cartesian Coordinates / Bohr, Angstrom **** 
                    ************************************************ 

     Center  Label                x              y              z                     x              y              z
        1      NB               0.000000       0.000000       0.000000              0.000000       0.000000       0.000000
--


++    Operator info:
      --------------


  Net charge from external field:   -4.0000000000000000     
--


            Nuclear Potential Energy              0.00000000 au

                    Nuclear-External Field Potential Energy      -9.64138744 au
                    External Field Potential Energy               0.21940334 au 


            Total Nuclear Potential Energy             -9.64138744 au


      Basis set specifications :
      Symmetry species         a  
      Basis functions          170

 Sorry, Molden does not know how to handle
 functions with angular momentum larger than g
Note: The following floating-point exceptions are signalling: IEEE_UNDERFLOW_FLAG IEEE_DENORMAL
--- Stop Module: seward at Mon Dec 23 16:06:08 2024 /rc=_RC_ALL_IS_WELL_ ---
*** files: niobium_so_cf.GssOrb xmldump
    saved to directory /home4/s4752295/Internship/Initial_simulations/Point_charge_model/1_electron/active_space_9_non_rel/Nb/varying_bond_length
--- Module seward spent 8 seconds ---

*** symbolic link created: INPORB -> niobium_so_cf.GssOrb
--- Start Module: scf at Mon Dec 23 16:06:08 2024 ---

()()()()()()()()()()()()()()()()()()()()()()()()()()()()()()()()()()()()()()()()()()()()()()()()()()

                                                &SCF

                                   only a single process is used
                       available to each process: 4.1 GB of memory, 1 thread?
                                            pid: 873378
()()()()()()()()()()()()()()()()()()()()()()()()()()()()()()()()()()()()()()()()()()()()()()()()()()

++    Input section:
      --------------

      Header of the integral files:
      
       Integrals generated by seward 4.2.0  , Mon Dec 23 16:06:00 2024


      Cartesian coordinates in Angstrom:
      -----------------------------------------------------
      No.  Label        X            Y            Z        
      -----------------------------------------------------
       1   NB         0.00000000   0.00000000   0.00000000
      -----------------------------------------------------
      Nuclear repulsion energy =   -9.64138744
--

++    Orbital specifications:
      -----------------------

      Symmetry species               1
                                     a
      Frozen orbitals                0
      Occupied orbitals             18
      Secondary orbitals           152
      Deleted orbitals               0
      Total number of orbitals     170
      Number of basis functions    170
--

      Molecular charge                           5.000

++    Optimization specifications:
      ----------------------------

      SCF Algorithm: Conventional
      Minimized density differences are used
      Number of density matrices in core                5
      Maximum number of NDDO SCF iterations            50
      Maximum number of HF SCF iterations             100
      Threshold for SCF energy change            0.10E-08
      Threshold for density matrix               0.10E-03
      Threshold for Fock matrix                  0.15E-03
      Threshold for linear dependence            0.10E-08
      Threshold at which DIIS is turned on       0.15E+00
      Threshold at which QNR/C2DIIS is turned on 0.75E-01
      Threshold for Norm(delta) (QNR/C2DIIS)     0.20E-04
      DIIS extrapolation of the SCF procedure
      All orbitals punched on: SCFORB
--

      Detected guessorb starting orbitals                                             


++ Convergence information
                                   SCF        iterations: Energy and convergence statistics

Iter     Tot. SCF        One-elec.       Two-elec.     Energy      Max Dij or  Max Fij      DNorm      TNorm      AccCon     Time
         Energy          Energy          Energy        Change      Delta Norm                                                in Sec.

 The total and one-electron energies are shifted by a value of      3000. a.u.

   1  -813.077535713 -2158.840584325  1355.404436053   0.00E+00    0.16E+00*   0.13E+00*    0.85E+01   0.49E+03   None         1.
   2  -813.216103336 -2172.017405440  1368.442689545  -0.14E+00*   0.11E-01*   0.39E-01*    0.63E+00   0.49E+03   EDIIS        1.
   3  -813.220167159 -2168.631032956  1365.052253238  -0.41E-02*   0.37E-02*   0.21E-01*    0.71E-01   0.49E+03   EDIIS        1.
   4  -813.220788368 -2170.131784979  1366.552384052  -0.62E-03*   0.51E-03*   0.63E-02*    0.99E-02   0.49E+03   c2DIIS       1.
   5  -813.220931610 -2169.689907239  1366.110363070  -0.14E-03*   0.61E-04*   0.95E-04     0.24E-03   0.49E+03   QNRc2DIIS    1.
   6  -813.220931647 -2169.683275602  1366.103731396  -0.37E-07*   0.15E-04    0.45E-04     0.12E-04   0.49E+03   QNRc2DIIS    1.
   7  -813.220931650 -2169.685633511  1366.106089302  -0.38E-08*   0.91E-06    0.18E-05     0.88E-03   0.49E+03   QNRc2DIIS    1.
   8  -813.220931650 -2169.685572111  1366.106027902  -0.77E-11    0.35E-07    0.53E-07     0.24E-02   0.49E+03   QNRc2DIIS    1.

       Convergence after  8 Macro Iterations
--

 *****************************************************************************************************************************
 *                                                                                                                           *
 *                                             SCF/KS-DFT Program, Final results                                             *
 *                                                                                                                           *
 *                                                                                                                           *
 *                                                                                                                           *
 *                                                       Final Results                                                       *
 *                                                                                                                           *
 *****************************************************************************************************************************

::    Total SCF energy                              -3813.2209316504
      One-electron energy                           -5169.6855721115
      Two-electron energy                            1366.1060279021
      Nuclear repulsion energy                         -9.6413874410
      Kinetic energy (interpolated)                  4200.0130613544
      Virial theorem                                    0.9079069222
      Total spin, S(S+1)                                0.0000000000
      Total spin, S                                     0.0000000000
      Max non-diagonal density matrix element           0.0000000539
      Max non-diagonal Fock matrix element              0.0000000004


      All orbitals with orbital energies smaller than  E(LUMO)+0.5 are printed

++    Molecular orbitals:
      -------------------

      Title: SCF orbitals

      Molecular orbitals for symmetry species 1: a  

          Orbital            1         2         3         4         5         6         7         8         9        10    
          Energy         -703.3693 -102.9692  -91.9833  -91.9833  -91.9833  -20.1301  -16.4284  -16.4284  -16.4284  -10.3549
          Occ. No.          2.0000    2.0000    2.0000    2.0000    2.0000    2.0000    2.0000    2.0000    2.0000    2.0000

        1 NB     1s         1.0000   -0.0000    0.0000   -0.0000   -0.0000    0.0000    0.0000   -0.0000    0.0000    0.0000
        2 NB     2s         0.0000    1.0000    0.0000   -0.0000   -0.0000    0.0001    0.0000    0.0000   -0.0000    0.0000
        3 NB     3s        -0.0000   -0.0001   -0.0000    0.0000    0.0000    1.0000    0.0000    0.0000   -0.0000    0.0000
        4 NB     4s         0.0000    0.0000    0.0000   -0.0000   -0.0000   -0.0010   -0.0000   -0.0000    0.0000    0.0000
        5 NB     5s        -0.0000    0.0000   -0.0000    0.0000    0.0000    0.0001   -0.0000   -0.0000   -0.0000    0.0000
        6 NB     6s         0.0000    0.0000    0.0000    0.0000   -0.0000   -0.0001    0.0000   -0.0000    0.0000   -0.0000
        7 NB     7s        -0.0000   -0.0000   -0.0000    0.0000    0.0000    0.0003   -0.0000    0.0000   -0.0000   -0.0000
        8 NB     8s         0.0000    0.0000    0.0000   -0.0000   -0.0000   -0.0003   -0.0000    0.0000    0.0000    0.0000
        9 NB     9s        -0.0000   -0.0000   -0.0000    0.0000    0.0000    0.0003    0.0000    0.0000   -0.0000    0.0000
       10 NB    10s         0.0000    0.0000    0.0000   -0.0000   -0.0000   -0.0002    0.0000   -0.0000    0.0000    0.0000
       11 NB     2px        0.0000   -0.0000   -0.0040    1.0000   -0.0000    0.0000   -0.0000    0.0001    0.0000   -0.0000
       12 NB     3px        0.0000   -0.0000    0.0000   -0.0001    0.0000   -0.0000   -0.1495    0.9888    0.0000    0.0000
       13 NB     4px        0.0000    0.0000   -0.0000    0.0000   -0.0000   -0.0000    0.0002   -0.0014   -0.0000   -0.0000
       14 NB     5px        0.0000   -0.0000    0.0000   -0.0000    0.0000    0.0000   -0.0000    0.0002    0.0000   -0.0000
       15 NB     6px       -0.0000    0.0000   -0.0000    0.0000   -0.0000   -0.0000    0.0001   -0.0005   -0.0000    0.0000
       16 NB     7px        0.0000   -0.0000    0.0000   -0.0000    0.0000    0.0000   -0.0001    0.0004    0.0000   -0.0000
       17 NB     8px       -0.0000    0.0000   -0.0000    0.0000   -0.0000   -0.0000    0.0001   -0.0004   -0.0000    0.0000
       18 NB     9px        0.0000   -0.0000    0.0000   -0.0000    0.0000    0.0000   -0.0000    0.0003    0.0000   -0.0000
       19 NB    10px       -0.0000   -0.0000   -0.0000    0.0000   -0.0000   -0.0000    0.0000   -0.0001   -0.0000    0.0000
       20 NB     2py        0.0000    0.0000    1.0000    0.0040    0.0000    0.0000    0.0001    0.0000    0.0000    0.0000
       21 NB     3py       -0.0000   -0.0000   -0.0001   -0.0000   -0.0000    0.0000    0.9888    0.1495    0.0000   -0.0000
       22 NB     4py        0.0000    0.0000    0.0000    0.0000    0.0000   -0.0000   -0.0014   -0.0002   -0.0000    0.0000
       23 NB     5py       -0.0000   -0.0000   -0.0000   -0.0000   -0.0000    0.0000    0.0002    0.0000    0.0000    0.0000
       24 NB     6py        0.0000    0.0000    0.0000    0.0000    0.0000   -0.0000   -0.0005   -0.0001   -0.0000   -0.0000
       25 NB     7py       -0.0000   -0.0000   -0.0000   -0.0000   -0.0000    0.0000    0.0004    0.0001    0.0000    0.0000
       26 NB     8py        0.0000    0.0000    0.0000    0.0000    0.0000   -0.0000   -0.0004   -0.0001   -0.0000   -0.0000
       27 NB     9py       -0.0000   -0.0000   -0.0000   -0.0000   -0.0000    0.0000    0.0003    0.0000    0.0000    0.0000
       28 NB    10py        0.0000    0.0000    0.0000    0.0000    0.0000   -0.0000   -0.0001   -0.0000   -0.0000   -0.0000
       29 NB     2pz        0.0000    0.0000   -0.0000    0.0000    1.0000   -0.0000   -0.0000   -0.0000    0.0001    0.0000
       30 NB     3pz       -0.0000    0.0000    0.0000   -0.0000   -0.0001    0.0000   -0.0000   -0.0000    1.0000   -0.0000
       31 NB     4pz        0.0000   -0.0000   -0.0000    0.0000    0.0000    0.0000    0.0000    0.0000   -0.0014    0.0000
       32 NB     5pz       -0.0000    0.0000    0.0000   -0.0000   -0.0000   -0.0000   -0.0000   -0.0000    0.0002   -0.0000
       33 NB     6pz        0.0000   -0.0000   -0.0000    0.0000    0.0000    0.0000    0.0000    0.0000   -0.0005    0.0000
       34 NB     7pz       -0.0000    0.0000    0.0000   -0.0000   -0.0000   -0.0000   -0.0000   -0.0000    0.0004    0.0000
       35 NB     8pz        0.0000   -0.0000   -0.0000    0.0000    0.0000    0.0000    0.0000    0.0000   -0.0004    0.0000
       36 NB     9pz       -0.0000    0.0000    0.0000   -0.0000   -0.0000   -0.0000   -0.0000   -0.0000    0.0003    0.0000
       37 NB    10pz        0.0000   -0.0000   -0.0000    0.0000    0.0000    0.0000    0.0000    0.0000   -0.0001    0.0000
       38 NB     3d2-      -0.0000   -0.0000   -0.0000   -0.0000   -0.0000   -0.0000    0.0000    0.0000    0.0000    0.9996
       39 NB     4d2-       0.0000    0.0000   -0.0000   -0.0000   -0.0000    0.0000    0.0000    0.0000   -0.0000   -0.0015
       40 NB     5d2-      -0.0000   -0.0000    0.0000    0.0000    0.0000   -0.0000   -0.0000   -0.0000   -0.0000    0.0008
       41 NB     6d2-       0.0000    0.0000   -0.0000   -0.0000   -0.0000    0.0000    0.0000    0.0000    0.0000   -0.0004
       42 NB     7d2-      -0.0000   -0.0000    0.0000    0.0000   -0.0000   -0.0000    0.0000    0.0000    0.0000    0.0002
       43 NB     8d2-       0.0000    0.0000    0.0000    0.0000    0.0000    0.0000   -0.0000   -0.0000   -0.0000   -0.0001
       44 NB     9d2-      -0.0000   -0.0000   -0.0000   -0.0000   -0.0000   -0.0000    0.0000    0.0000    0.0000    0.0002
       45 NB    10d2-      -0.0000   -0.0000   -0.0000   -0.0000   -0.0000   -0.0000    0.0000    0.0000   -0.0000    0.0003
       46 NB     3d1-       0.0000    0.0000    0.0000    0.0000    0.0000    0.0000    0.0000    0.0000    0.0000   -0.0025
       47 NB     4d1-      -0.0000   -0.0000   -0.0000   -0.0000   -0.0000   -0.0000    0.0000    0.0000    0.0000    0.0000
       48 NB     5d1-       0.0000    0.0000    0.0000    0.0000    0.0000    0.0000   -0.0000   -0.0000   -0.0000   -0.0000
       49 NB     6d1-      -0.0000   -0.0000   -0.0000   -0.0000   -0.0000   -0.0000    0.0000    0.0000    0.0000    0.0000
       50 NB     7d1-       0.0000    0.0000    0.0000    0.0000   -0.0000    0.0000   -0.0000   -0.0000   -0.0000   -0.0000
       51 NB     8d1-      -0.0000   -0.0000    0.0000    0.0000    0.0000   -0.0000    0.0000    0.0000    0.0000    0.0000
       52 NB     9d1-       0.0000    0.0000   -0.0000   -0.0000   -0.0000    0.0000   -0.0000   -0.0000   -0.0000   -0.0000
       53 NB    10d1-       0.0000    0.0000   -0.0000   -0.0000   -0.0000    0.0000   -0.0000   -0.0000   -0.0000   -0.0000
       54 NB     3d0       -0.0000   -0.0000   -0.0000    0.0000    0.0000   -0.0000   -0.0000   -0.0000    0.0000    0.0000
       55 NB     4d0        0.0000    0.0000    0.0000    0.0000   -0.0000   -0.0000   -0.0000   -0.0000    0.0000   -0.0000
       56 NB     5d0       -0.0000   -0.0000   -0.0000   -0.0000    0.0000    0.0000    0.0000    0.0000   -0.0000    0.0000
       57 NB     6d0        0.0000    0.0000    0.0000    0.0000   -0.0000   -0.0000   -0.0000   -0.0000    0.0000   -0.0000
       58 NB     7d0       -0.0000   -0.0000   -0.0000   -0.0000    0.0000    0.0000    0.0000    0.0000   -0.0000    0.0000
       59 NB     8d0        0.0000    0.0000   -0.0000    0.0000    0.0000   -0.0000   -0.0000   -0.0000    0.0000   -0.0000
       60 NB     9d0       -0.0000   -0.0000    0.0000   -0.0000   -0.0000    0.0000    0.0000    0.0000   -0.0000    0.0000
       61 NB    10d0       -0.0000   -0.0000    0.0000   -0.0000   -0.0000    0.0000    0.0000   -0.0000   -0.0000    0.0000
       62 NB     3d1+      -0.0000    0.0000   -0.0000    0.0000   -0.0000    0.0000   -0.0000    0.0000   -0.0000    0.0001
       63 NB     4d1+      -0.0000   -0.0000    0.0000   -0.0000    0.0000    0.0000   -0.0000    0.0000   -0.0000   -0.0000
       64 NB     5d1+       0.0000    0.0000   -0.0000    0.0000   -0.0000   -0.0000    0.0000   -0.0000    0.0000    0.0000
       65 NB     6d1+      -0.0000   -0.0000    0.0000   -0.0000    0.0000    0.0000   -0.0000    0.0000   -0.0000   -0.0000
       66 NB     7d1+       0.0000    0.0000   -0.0000    0.0000   -0.0000   -0.0000    0.0000   -0.0000    0.0000    0.0000
       67 NB     8d1+      -0.0000   -0.0000   -0.0000    0.0000   -0.0000    0.0000   -0.0000    0.0000   -0.0000   -0.0000
       68 NB     9d1+       0.0000    0.0000    0.0000   -0.0000    0.0000   -0.0000    0.0000   -0.0000    0.0000    0.0000
       69 NB    10d1+       0.0000    0.0000    0.0000   -0.0000    0.0000   -0.0000    0.0000   -0.0000    0.0000    0.0000
       70 NB     3d2+      -0.0000   -0.0000   -0.0000    0.0000   -0.0000   -0.0000    0.0000   -0.0000   -0.0000    0.0272
       71 NB     4d2+       0.0000    0.0000   -0.0000    0.0000   -0.0000    0.0000    0.0000   -0.0000   -0.0000   -0.0000
       72 NB     5d2+      -0.0000   -0.0000    0.0000   -0.0000    0.0000   -0.0000   -0.0000    0.0000   -0.0000    0.0000
       73 NB     6d2+       0.0000    0.0000   -0.0000    0.0000   -0.0000    0.0000    0.0000   -0.0000    0.0000   -0.0000
       74 NB     7d2+      -0.0000   -0.0000    0.0000   -0.0000    0.0000   -0.0000    0.0000   -0.0000   -0.0000    0.0000
       75 NB     8d2+       0.0000    0.0000    0.0000   -0.0000    0.0000    0.0000   -0.0000    0.0000    0.0000   -0.0000
       76 NB     9d2+       0.0000   -0.0000   -0.0000    0.0000   -0.0000   -0.0000    0.0000   -0.0000   -0.0000    0.0000
       77 NB    10d2+       0.0000   -0.0000   -0.0000    0.0000   -0.0000   -0.0000    0.0000   -0.0000   -0.0000    0.0000
       78 NB     4f3-      -0.0000    0.0000   -0.0000    0.0000    0.0000    0.0000   -0.0000   -0.0000   -0.0000   -0.0000
       79 NB     5f3-       0.0000    0.0000   -0.0000   -0.0000    0.0000    0.0000   -0.0000   -0.0000   -0.0000   -0.0000
       80 NB     6f3-      -0.0000   -0.0000    0.0000   -0.0000   -0.0000   -0.0000    0.0000    0.0000    0.0000    0.0000
       81 NB     7f3-       0.0000    0.0000   -0.0000    0.0000   -0.0000    0.0000   -0.0000   -0.0000    0.0000   -0.0000
       82 NB     8f3-      -0.0000   -0.0000   -0.0000    0.0000   -0.0000    0.0000   -0.0000   -0.0000    0.0000   -0.0000
       83 NB     4f2-      -0.0000    0.0000    0.0000    0.0000    0.0000    0.0000   -0.0000   -0.0000   -0.0000    0.0000
       84 NB     5f2-      -0.0000    0.0000   -0.0000   -0.0000   -0.0000    0.0000   -0.0000   -0.0000   -0.0000    0.0000
       85 NB     6f2-       0.0000   -0.0000   -0.0000   -0.0000   -0.0000   -0.0000    0.0000    0.0000    0.0000   -0.0000
       86 NB     7f2-      -0.0000    0.0000   -0.0000   -0.0000   -0.0000    0.0000    0.0000    0.0000    0.0000    0.0000
       87 NB     8f2-      -0.0000    0.0000    0.0000    0.0000    0.0000    0.0000   -0.0000   -0.0000   -0.0000    0.0000
       88 NB     4f1-      -0.0000    0.0000   -0.0000   -0.0000   -0.0000    0.0000   -0.0000   -0.0000   -0.0000   -0.0000
       89 NB     5f1-      -0.0000    0.0000   -0.0000   -0.0000   -0.0000    0.0000   -0.0000   -0.0000   -0.0000   -0.0000
       90 NB     6f1-       0.0000    0.0000    0.0000    0.0000    0.0000   -0.0000    0.0000    0.0000    0.0000    0.0000
       91 NB     7f1-      -0.0000   -0.0000   -0.0000   -0.0000   -0.0000    0.0000   -0.0000   -0.0000   -0.0000    0.0000
       92 NB     8f1-       0.0000   -0.0000   -0.0000   -0.0000   -0.0000    0.0000   -0.0000   -0.0000   -0.0000    0.0000
       93 NB     4f0       -0.0000    0.0000    0.0000   -0.0000   -0.0000   -0.0000    0.0000    0.0000   -0.0000    0.0000
       94 NB     5f0       -0.0000    0.0000    0.0000   -0.0000   -0.0000   -0.0000    0.0000    0.0000   -0.0000    0.0000
       95 NB     6f0        0.0000   -0.0000   -0.0000    0.0000    0.0000    0.0000   -0.0000   -0.0000    0.0000   -0.0000
       96 NB     7f0       -0.0000    0.0000    0.0000   -0.0000   -0.0000    0.0000    0.0000    0.0000   -0.0000    0.0000
       97 NB     8f0       -0.0000   -0.0000    0.0000   -0.0000   -0.0000    0.0000    0.0000    0.0000   -0.0000    0.0000
       98 NB     4f1+       0.0000    0.0000    0.0000   -0.0000    0.0000   -0.0000    0.0000   -0.0000    0.0000    0.0000
       99 NB     5f1+       0.0000    0.0000    0.0000   -0.0000    0.0000   -0.0000    0.0000   -0.0000    0.0000    0.0000
      100 NB     6f1+      -0.0000   -0.0000   -0.0000    0.0000   -0.0000    0.0000   -0.0000    0.0000   -0.0000   -0.0000
      101 NB     7f1+       0.0000    0.0000    0.0000   -0.0000    0.0000   -0.0000    0.0000   -0.0000    0.0000   -0.0000
      102 NB     8f1+      -0.0000    0.0000    0.0000   -0.0000    0.0000   -0.0000    0.0000   -0.0000    0.0000   -0.0000
      103 NB     4f2+      -0.0000    0.0000    0.0000   -0.0000    0.0000    0.0000   -0.0000    0.0000   -0.0000    0.0000
      104 NB     5f2+      -0.0000    0.0000   -0.0000    0.0000    0.0000    0.0000   -0.0000    0.0000   -0.0000    0.0000
      105 NB     6f2+       0.0000   -0.0000   -0.0000    0.0000    0.0000   -0.0000    0.0000   -0.0000    0.0000   -0.0000
      106 NB     7f2+      -0.0000    0.0000   -0.0000    0.0000   -0.0000    0.0000    0.0000   -0.0000   -0.0000    0.0000
      107 NB     8f2+      -0.0000    0.0000    0.0000   -0.0000    0.0000    0.0000   -0.0000    0.0000   -0.0000    0.0000
      108 NB     4f3+      -0.0000    0.0000   -0.0000    0.0000   -0.0000   -0.0000    0.0000   -0.0000    0.0000   -0.0000
      109 NB     5f3+      -0.0000    0.0000    0.0000   -0.0000    0.0000   -0.0000   -0.0000   -0.0000    0.0000   -0.0000
      110 NB     6f3+       0.0000   -0.0000   -0.0000   -0.0000    0.0000    0.0000    0.0000    0.0000   -0.0000    0.0000
      111 NB     7f3+      -0.0000    0.0000   -0.0000   -0.0000    0.0000    0.0000    0.0000   -0.0000   -0.0000   -0.0000
      112 NB     8f3+      -0.0000   -0.0000    0.0000   -0.0000   -0.0000    0.0000    0.0000   -0.0000    0.0000   -0.0000
      113 NB     5g4-      -0.0000   -0.0000    0.0000    0.0000    0.0000   -0.0000   -0.0000   -0.0000   -0.0000    0.0000
      114 NB     6g4-       0.0000    0.0000   -0.0000   -0.0000   -0.0000    0.0000    0.0000    0.0000    0.0000    0.0000
      115 NB     7g4-      -0.0000    0.0000    0.0000    0.0000    0.0000   -0.0000   -0.0000   -0.0000   -0.0000    0.0000
      116 NB     8g4-       0.0000   -0.0000   -0.0000   -0.0000   -0.0000    0.0000   -0.0000   -0.0000   -0.0000    0.0000
      117 NB     5g3-       0.0000   -0.0000   -0.0000   -0.0000   -0.0000   -0.0000    0.0000    0.0000    0.0000    0.0000
      118 NB     6g3-      -0.0000    0.0000    0.0000   -0.0000   -0.0000   -0.0000   -0.0000   -0.0000    0.0000   -0.0000
      119 NB     7g3-       0.0000   -0.0000    0.0000    0.0000    0.0000    0.0000    0.0000   -0.0000    0.0000    0.0000
      120 NB     8g3-      -0.0000   -0.0000   -0.0000    0.0000   -0.0000   -0.0000   -0.0000    0.0000   -0.0000   -0.0000
      121 NB     5g2-      -0.0000    0.0000    0.0000    0.0000    0.0000   -0.0000   -0.0000   -0.0000   -0.0000   -0.0000
      122 NB     6g2-       0.0000   -0.0000   -0.0000   -0.0000   -0.0000    0.0000    0.0000    0.0000    0.0000    0.0000
      123 NB     7g2-      -0.0000    0.0000    0.0000    0.0000    0.0000   -0.0000   -0.0000   -0.0000    0.0000   -0.0000
      124 NB     8g2-       0.0000   -0.0000   -0.0000   -0.0000   -0.0000    0.0000   -0.0000   -0.0000   -0.0000    0.0000
      125 NB     5g1-       0.0000    0.0000    0.0000    0.0000    0.0000    0.0000   -0.0000   -0.0000   -0.0000    0.0000
      126 NB     6g1-      -0.0000   -0.0000   -0.0000   -0.0000   -0.0000   -0.0000    0.0000    0.0000    0.0000   -0.0000
      127 NB     7g1-       0.0000   -0.0000    0.0000    0.0000    0.0000    0.0000   -0.0000   -0.0000    0.0000    0.0000
      128 NB     8g1-      -0.0000    0.0000   -0.0000   -0.0000   -0.0000    0.0000   -0.0000   -0.0000   -0.0000   -0.0000
      129 NB     5g0       -0.0000    0.0000    0.0000   -0.0000    0.0000   -0.0000    0.0000   -0.0000   -0.0000   -0.0000
      130 NB     6g0       -0.0000    0.0000   -0.0000    0.0000   -0.0000    0.0000   -0.0000    0.0000    0.0000   -0.0000
      131 NB     7g0        0.0000   -0.0000    0.0000   -0.0000    0.0000   -0.0000    0.0000   -0.0000   -0.0000    0.0000
      132 NB     8g0        0.0000   -0.0000    0.0000   -0.0000   -0.0000    0.0000   -0.0000   -0.0000   -0.0000    0.0000
      133 NB     5g1+       0.0000    0.0000   -0.0000    0.0000   -0.0000    0.0000    0.0000   -0.0000   -0.0000   -0.0000
      134 NB     6g1+       0.0000   -0.0000    0.0000   -0.0000    0.0000   -0.0000   -0.0000    0.0000    0.0000    0.0000
      135 NB     7g1+      -0.0000   -0.0000   -0.0000    0.0000   -0.0000   -0.0000    0.0000   -0.0000   -0.0000   -0.0000
      136 NB     8g1+       0.0000    0.0000    0.0000   -0.0000    0.0000    0.0000    0.0000   -0.0000    0.0000    0.0000
      137 NB     5g2+      -0.0000   -0.0000    0.0000   -0.0000    0.0000   -0.0000   -0.0000    0.0000   -0.0000   -0.0000
      138 NB     6g2+       0.0000    0.0000   -0.0000    0.0000    0.0000    0.0000    0.0000   -0.0000    0.0000    0.0000
      139 NB     7g2+      -0.0000   -0.0000    0.0000   -0.0000   -0.0000   -0.0000   -0.0000    0.0000    0.0000   -0.0000
      140 NB     8g2+       0.0000    0.0000   -0.0000    0.0000    0.0000    0.0000   -0.0000    0.0000    0.0000    0.0000
      141 NB     5g3+       0.0000   -0.0000   -0.0000    0.0000    0.0000    0.0000    0.0000    0.0000   -0.0000    0.0000
      142 NB     6g3+      -0.0000   -0.0000    0.0000   -0.0000   -0.0000   -0.0000   -0.0000   -0.0000    0.0000   -0.0000
      143 NB     7g3+      -0.0000    0.0000   -0.0000    0.0000    0.0000    0.0000   -0.0000    0.0000   -0.0000   -0.0000
      144 NB     8g3+      -0.0000    0.0000    0.0000   -0.0000   -0.0000   -0.0000    0.0000    0.0000   -0.0000    0.0000
      145 NB     5g4+       0.0000    0.0000   -0.0000    0.0000   -0.0000    0.0000    0.0000   -0.0000   -0.0000   -0.0000
      146 NB     6g4+      -0.0000   -0.0000    0.0000   -0.0000    0.0000   -0.0000   -0.0000    0.0000    0.0000   -0.0000
      147 NB     7g4+       0.0000    0.0000   -0.0000    0.0000   -0.0000    0.0000    0.0000   -0.0000    0.0000   -0.0000
      148 NB     8g4+      -0.0000   -0.0000    0.0000   -0.0000    0.0000   -0.0000    0.0000   -0.0000   -0.0000   -0.0000
      149 NB     6h5-       0.0000   -0.0000    0.0000    0.0000   -0.0000    0.0000    0.0000    0.0000    0.0000   -0.0000
      150 NB     7h5-      -0.0000    0.0000   -0.0000   -0.0000    0.0000   -0.0000   -0.0000   -0.0000    0.0000    0.0000
      151 NB     6h4-       0.0000   -0.0000   -0.0000   -0.0000   -0.0000    0.0000    0.0000    0.0000    0.0000    0.0000
      152 NB     7h4-      -0.0000    0.0000   -0.0000   -0.0000   -0.0000    0.0000   -0.0000   -0.0000   -0.0000   -0.0000
      153 NB     6h3-      -0.0000   -0.0000   -0.0000    0.0000   -0.0000   -0.0000   -0.0000   -0.0000    0.0000   -0.0000
      154 NB     7h3-       0.0000   -0.0000   -0.0000   -0.0000    0.0000    0.0000    0.0000    0.0000    0.0000    0.0000
      155 NB     6h2-       0.0000    0.0000   -0.0000   -0.0000   -0.0000    0.0000    0.0000    0.0000    0.0000   -0.0000
      156 NB     7h2-       0.0000   -0.0000   -0.0000   -0.0000    0.0000   -0.0000   -0.0000   -0.0000   -0.0000    0.0000
      157 NB     6h1-       0.0000   -0.0000    0.0000    0.0000   -0.0000   -0.0000   -0.0000   -0.0000   -0.0000    0.0000
      158 NB     7h1-      -0.0000    0.0000    0.0000    0.0000   -0.0000    0.0000    0.0000    0.0000    0.0000   -0.0000
      159 NB     6h0       -0.0000    0.0000   -0.0000   -0.0000    0.0000   -0.0000    0.0000    0.0000   -0.0000   -0.0000
      160 NB     7h0       -0.0000    0.0000   -0.0000    0.0000    0.0000    0.0000   -0.0000   -0.0000    0.0000   -0.0000
      161 NB     6h1+      -0.0000   -0.0000   -0.0000    0.0000   -0.0000   -0.0000    0.0000   -0.0000   -0.0000   -0.0000
      162 NB     7h1+       0.0000    0.0000   -0.0000    0.0000    0.0000    0.0000   -0.0000    0.0000    0.0000    0.0000
      163 NB     6h2+      -0.0000   -0.0000   -0.0000    0.0000   -0.0000   -0.0000    0.0000   -0.0000   -0.0000   -0.0000
      164 NB     7h2+       0.0000    0.0000   -0.0000    0.0000    0.0000    0.0000   -0.0000    0.0000   -0.0000    0.0000
      165 NB     6h3+      -0.0000    0.0000    0.0000   -0.0000   -0.0000   -0.0000    0.0000   -0.0000    0.0000    0.0000
      166 NB     7h3+      -0.0000    0.0000    0.0000    0.0000   -0.0000    0.0000   -0.0000   -0.0000   -0.0000   -0.0000
      167 NB     6h4+       0.0000   -0.0000    0.0000   -0.0000    0.0000   -0.0000   -0.0000    0.0000    0.0000   -0.0000
      168 NB     7h4+      -0.0000    0.0000    0.0000   -0.0000   -0.0000    0.0000    0.0000   -0.0000    0.0000    0.0000
      169 NB     6h5+       0.0000   -0.0000   -0.0000   -0.0000   -0.0000    0.0000    0.0000   -0.0000   -0.0000   -0.0000
      170 NB     7h5+      -0.0000    0.0000   -0.0000    0.0000    0.0000   -0.0000   -0.0000    0.0000    0.0000    0.0000

          Orbital           11        12        13        14        15        16        17        18        19        20    
          Energy          -10.3549  -10.3549  -10.3549  -10.3549   -4.6712   -3.5293   -3.5293   -3.5291   -1.5651   -1.5651
          Occ. No.          2.0000    2.0000    2.0000    2.0000    2.0000    2.0000    2.0000    2.0000    0.0000    0.0000

        1 NB     1s         0.0000   -0.0000   -0.0000    0.0000   -0.0000   -0.0000    0.0000   -0.0000    0.0000    0.0000
        2 NB     2s         0.0000   -0.0000   -0.0000    0.0000   -0.0000   -0.0000   -0.0000    0.0000    0.0000    0.0000
        3 NB     3s         0.0000   -0.0000   -0.0000    0.0000    0.0010    0.0000    0.0000   -0.0000    0.0000   -0.0000
        4 NB     4s         0.0000    0.0000    0.0000   -0.0000    0.9987    0.0000    0.0000   -0.0006    0.0000   -0.0000
        5 NB     5s         0.0000   -0.0000   -0.0000    0.0000   -0.0329    0.0000   -0.0000    0.0002    0.0000   -0.0000
        6 NB     6s        -0.0000    0.0000    0.0000   -0.0000    0.0270   -0.0000    0.0000   -0.0002   -0.0000    0.0000
        7 NB     7s        -0.0000   -0.0000   -0.0000    0.0000   -0.0291    0.0000   -0.0000    0.0002    0.0000   -0.0000
        8 NB     8s         0.0000   -0.0000   -0.0000    0.0000   -0.0017    0.0000   -0.0000    0.0000    0.0000   -0.0000
        9 NB     9s         0.0000    0.0000   -0.0000   -0.0000    0.0038    0.0000    0.0000   -0.0000    0.0000   -0.0000
       10 NB    10s         0.0000    0.0000   -0.0000    0.0000    0.0006   -0.0000    0.0000   -0.0000    0.0000   -0.0000
       11 NB     2px       -0.0000   -0.0000   -0.0000    0.0000   -0.0000    0.0000   -0.0000    0.0000    0.0000   -0.0000
       12 NB     3px        0.0000   -0.0000   -0.0000    0.0000    0.0000   -0.0000    0.0015   -0.0000    0.0000   -0.0000
       13 NB     4px       -0.0000    0.0000    0.0000   -0.0000   -0.0000   -0.0115    0.9962   -0.0000    0.0000   -0.0000
       14 NB     5px       -0.0000   -0.0000   -0.0000   -0.0000   -0.0000    0.0007   -0.0630    0.0000    0.0000   -0.0001
       15 NB     6px        0.0000    0.0000    0.0000    0.0000    0.0000   -0.0007    0.0584   -0.0000   -0.0000    0.0000
       16 NB     7px       -0.0000   -0.0000   -0.0000    0.0000   -0.0000   -0.0000    0.0017   -0.0000   -0.0000    0.0000
       17 NB     8px        0.0000   -0.0000   -0.0000   -0.0000    0.0000    0.0001   -0.0086    0.0000   -0.0000    0.0000
       18 NB     9px       -0.0000    0.0000    0.0000    0.0000    0.0000    0.0000   -0.0033    0.0000   -0.0000    0.0000
       19 NB    10px        0.0000    0.0000    0.0000    0.0000    0.0000    0.0000   -0.0002    0.0000    0.0000   -0.0000
       20 NB     2py       -0.0000   -0.0000    0.0000    0.0000    0.0000   -0.0000   -0.0000   -0.0000    0.0000    0.0000
       21 NB     3py        0.0000   -0.0000    0.0000   -0.0000   -0.0000    0.0015    0.0000    0.0000    0.0000    0.0000
       22 NB     4py       -0.0000    0.0000   -0.0000    0.0000   -0.0000    0.9962    0.0115    0.0000    0.0000    0.0000
       23 NB     5py       -0.0000   -0.0000    0.0000   -0.0000    0.0000   -0.0630   -0.0007   -0.0000    0.0001    0.0000
       24 NB     6py        0.0000    0.0000   -0.0000    0.0000   -0.0000    0.0584    0.0007    0.0000   -0.0000   -0.0000
       25 NB     7py       -0.0000   -0.0000    0.0000    0.0000    0.0000    0.0017    0.0000    0.0000   -0.0000   -0.0000
       26 NB     8py        0.0000   -0.0000    0.0000   -0.0000    0.0000   -0.0086   -0.0001   -0.0000   -0.0000   -0.0000
       27 NB     9py       -0.0000    0.0000   -0.0000    0.0000    0.0000   -0.0033   -0.0000   -0.0000   -0.0000   -0.0000
       28 NB    10py        0.0000    0.0000   -0.0000   -0.0000   -0.0000   -0.0002   -0.0000   -0.0000    0.0000    0.0000
       29 NB     2pz       -0.0000    0.0000    0.0000   -0.0000    0.0000    0.0000   -0.0000   -0.0000   -0.0000    0.0000
       30 NB     3pz       -0.0000    0.0000    0.0000   -0.0000   -0.0000   -0.0000    0.0000    0.0015    0.0000    0.0000
       31 NB     4pz        0.0000   -0.0000   -0.0000    0.0000    0.0006   -0.0000    0.0000    0.9963    0.0000    0.0000
       32 NB     5pz       -0.0000    0.0000    0.0000   -0.0000    0.0000    0.0000   -0.0000   -0.0630    0.0000   -0.0000
       33 NB     6pz        0.0000   -0.0000   -0.0000    0.0000   -0.0000   -0.0000    0.0000    0.0584   -0.0000    0.0000
       34 NB     7pz       -0.0000    0.0000   -0.0000   -0.0000    0.0000   -0.0000    0.0000    0.0017   -0.0000    0.0000
       35 NB     8pz       -0.0000    0.0000    0.0000   -0.0000   -0.0000    0.0000   -0.0000   -0.0087   -0.0000   -0.0000
       36 NB     9pz       -0.0000    0.0000    0.0000    0.0000   -0.0000    0.0000   -0.0000   -0.0033    0.0000   -0.0000
       37 NB    10pz        0.0000   -0.0000   -0.0000    0.0000   -0.0000    0.0000   -0.0000   -0.0002   -0.0000   -0.0000
       38 NB     3d2-      -0.0272    0.0024   -0.0005   -0.0000   -0.0000   -0.0000   -0.0000   -0.0000    0.0017    0.0001
       39 NB     4d2-       0.0000   -0.0000    0.0000    0.0000   -0.0000    0.0000    0.0000   -0.0000    0.9556    0.0528
       40 NB     5d2-      -0.0000    0.0000   -0.0000   -0.0000    0.0000   -0.0000   -0.0000    0.0000   -0.2846   -0.0157
       41 NB     6d2-       0.0000   -0.0000    0.0000    0.0000   -0.0000   -0.0000   -0.0000   -0.0000    0.0141    0.0008
       42 NB     7d2-      -0.0000    0.0000   -0.0000   -0.0000    0.0000   -0.0000   -0.0000    0.0000    0.0370    0.0020
       43 NB     8d2-       0.0000   -0.0000    0.0000    0.0000   -0.0000   -0.0000   -0.0000    0.0000   -0.0102   -0.0006
       44 NB     9d2-      -0.0000    0.0000   -0.0000   -0.0000    0.0000   -0.0000   -0.0000   -0.0000   -0.0138   -0.0008
       45 NB    10d2-      -0.0000    0.0000   -0.0000   -0.0000    0.0000    0.0000    0.0000    0.0000    0.0023    0.0001
       46 NB     3d1-       0.0001    0.9796   -0.2009    0.0000   -0.0000   -0.0000   -0.0000   -0.0000   -0.0000   -0.0000
       47 NB     4d1-      -0.0000   -0.0015    0.0003   -0.0000   -0.0000    0.0004    0.0000    0.0000   -0.0274   -0.0015
       48 NB     5d1-       0.0000    0.0008   -0.0002    0.0000    0.0000   -0.0001   -0.0000   -0.0000    0.0082    0.0005
       49 NB     6d1-      -0.0000   -0.0003    0.0001   -0.0000   -0.0000   -0.0000   -0.0000   -0.0000   -0.0004   -0.0000
       50 NB     7d1-       0.0000    0.0002   -0.0000    0.0000    0.0000    0.0000    0.0000    0.0000   -0.0011   -0.0001
       51 NB     8d1-      -0.0000   -0.0001    0.0000   -0.0000   -0.0000   -0.0000   -0.0000   -0.0000    0.0003    0.0000
       52 NB     9d1-       0.0000    0.0002   -0.0000    0.0000    0.0000   -0.0000   -0.0000   -0.0000    0.0004    0.0000
       53 NB    10d1-       0.0000    0.0003   -0.0001    0.0000    0.0000    0.0000    0.0000    0.0000   -0.0001   -0.0000
       54 NB     3d0        0.0000   -0.0000    0.0000    1.0000    0.0000    0.0000   -0.0000   -0.0000   -0.0000   -0.0000
       55 NB     4d0       -0.0000    0.0000   -0.0000   -0.0015   -0.0000   -0.0000    0.0000    0.0005   -0.0000   -0.0000
       56 NB     5d0        0.0000   -0.0000    0.0000    0.0008    0.0000    0.0000   -0.0000   -0.0002    0.0000    0.0000
       57 NB     6d0       -0.0000    0.0000   -0.0000   -0.0004    0.0000   -0.0000   -0.0000   -0.0000   -0.0000   -0.0000
       58 NB     7d0        0.0000   -0.0000    0.0000    0.0002   -0.0000   -0.0000    0.0000    0.0000   -0.0000   -0.0000
       59 NB     8d0       -0.0000    0.0000   -0.0000   -0.0001    0.0000    0.0000   -0.0000   -0.0000    0.0000    0.0000
       60 NB     9d0        0.0000   -0.0000    0.0000    0.0002    0.0000    0.0000   -0.0000   -0.0000    0.0000    0.0000
       61 NB    10d0        0.0000   -0.0000    0.0000    0.0003   -0.0000   -0.0000    0.0000    0.0000   -0.0000   -0.0000
       62 NB     3d1+       0.0025    0.2009    0.9796   -0.0000   -0.0000    0.0000   -0.0000    0.0000   -0.0000    0.0000
       63 NB     4d1+      -0.0000   -0.0003   -0.0015    0.0000    0.0000   -0.0000    0.0004   -0.0000   -0.0015    0.0274
       64 NB     5d1+       0.0000    0.0002    0.0008   -0.0000   -0.0000    0.0000   -0.0001    0.0000    0.0005   -0.0082
       65 NB     6d1+      -0.0000   -0.0001   -0.0003    0.0000   -0.0000    0.0000   -0.0000    0.0000   -0.0000    0.0004
       66 NB     7d1+       0.0000    0.0000    0.0002   -0.0000    0.0000   -0.0000    0.0000   -0.0000   -0.0001    0.0011
       67 NB     8d1+      -0.0000   -0.0000   -0.0001    0.0000   -0.0000    0.0000   -0.0000    0.0000    0.0000   -0.0003
       68 NB     9d1+       0.0000    0.0000    0.0002   -0.0000   -0.0000    0.0000   -0.0000    0.0000    0.0000   -0.0004
       69 NB    10d1+       0.0000    0.0001    0.0003   -0.0000    0.0000   -0.0000    0.0000   -0.0000   -0.0000    0.0001
       70 NB     3d2+       0.9996   -0.0005   -0.0024   -0.0000   -0.0000   -0.0000    0.0000   -0.0000   -0.0001    0.0017
       71 NB     4d2+      -0.0015    0.0000    0.0000    0.0000    0.0000    0.0000   -0.0000    0.0000   -0.0528    0.9556
       72 NB     5d2+       0.0008   -0.0000   -0.0000   -0.0000   -0.0000   -0.0000    0.0000    0.0000    0.0157   -0.2846
       73 NB     6d2+      -0.0004    0.0000    0.0000    0.0000   -0.0000   -0.0000    0.0000   -0.0000   -0.0008    0.0141
       74 NB     7d2+       0.0002   -0.0000   -0.0000   -0.0000    0.0000   -0.0000    0.0000   -0.0000   -0.0020    0.0370
       75 NB     8d2+      -0.0001    0.0000    0.0000    0.0000   -0.0000   -0.0000    0.0000   -0.0000    0.0006   -0.0102
       76 NB     9d2+       0.0002   -0.0000   -0.0000   -0.0000   -0.0000   -0.0000    0.0000    0.0000    0.0008   -0.0138
       77 NB    10d2+       0.0003   -0.0000   -0.0000   -0.0000   -0.0000    0.0000   -0.0000    0.0000   -0.0001    0.0023
       78 NB     4f3-       0.0000   -0.0000    0.0000   -0.0000   -0.0000    0.0000    0.0000    0.0000   -0.0000   -0.0000
       79 NB     5f3-       0.0000   -0.0000    0.0000    0.0000   -0.0000   -0.0000   -0.0000    0.0000    0.0000    0.0000
       80 NB     6f3-      -0.0000   -0.0000   -0.0000    0.0000   -0.0000    0.0000    0.0000   -0.0000   -0.0000   -0.0000
       81 NB     7f3-       0.0000   -0.0000   -0.0000   -0.0000    0.0000    0.0000    0.0000   -0.0000   -0.0000   -0.0000
       82 NB     8f3-       0.0000   -0.0000    0.0000    0.0000    0.0000   -0.0000   -0.0000   -0.0000    0.0000    0.0000
       83 NB     4f2-      -0.0000    0.0000   -0.0000   -0.0000   -0.0000   -0.0000   -0.0000   -0.0000    0.0009    0.0000
       84 NB     5f2-      -0.0000    0.0000   -0.0000   -0.0000   -0.0000    0.0000    0.0000    0.0000   -0.0004   -0.0000
       85 NB     6f2-       0.0000   -0.0000    0.0000    0.0000    0.0000   -0.0000   -0.0000    0.0000    0.0000    0.0000
       86 NB     7f2-      -0.0000   -0.0000    0.0000   -0.0000   -0.0000   -0.0000   -0.0000   -0.0000    0.0001    0.0000
       87 NB     8f2-      -0.0000   -0.0000    0.0000   -0.0000   -0.0000    0.0000    0.0000    0.0000   -0.0000   -0.0000
       88 NB     4f1-       0.0000    0.0000   -0.0000    0.0000   -0.0000   -0.0000   -0.0000   -0.0000   -0.0000   -0.0000
       89 NB     5f1-       0.0000    0.0000   -0.0000    0.0000   -0.0000    0.0000    0.0000   -0.0000    0.0000    0.0000
       90 NB     6f1-      -0.0000   -0.0000    0.0000   -0.0000   -0.0000   -0.0000   -0.0000   -0.0000    0.0000    0.0000
       91 NB     7f1-      -0.0000    0.0000   -0.0000    0.0000    0.0000   -0.0000   -0.0000   -0.0000   -0.0000   -0.0000
       92 NB     8f1-      -0.0000    0.0000   -0.0000    0.0000    0.0000   -0.0000   -0.0000   -0.0000    0.0000    0.0000
       93 NB     4f0        0.0000   -0.0000    0.0000    0.0000   -0.0000    0.0000   -0.0000   -0.0000   -0.0000   -0.0000
       94 NB     5f0        0.0000   -0.0000    0.0000    0.0000    0.0000   -0.0000    0.0000    0.0000    0.0000    0.0000
       95 NB     6f0       -0.0000    0.0000   -0.0000   -0.0000   -0.0000    0.0000   -0.0000   -0.0000   -0.0000    0.0000
       96 NB     7f0        0.0000   -0.0000    0.0000    0.0000   -0.0000    0.0000   -0.0000   -0.0000   -0.0000   -0.0000
       97 NB     8f0        0.0000   -0.0000    0.0000    0.0000   -0.0000    0.0000   -0.0000   -0.0000    0.0000    0.0000
       98 NB     4f1+       0.0000    0.0000    0.0000   -0.0000   -0.0000    0.0000   -0.0000    0.0000   -0.0000    0.0000
       99 NB     5f1+       0.0000    0.0000    0.0000   -0.0000    0.0000   -0.0000    0.0000   -0.0000    0.0000   -0.0000
      100 NB     6f1+      -0.0000   -0.0000   -0.0000    0.0000   -0.0000    0.0000   -0.0000    0.0000    0.0000   -0.0000
      101 NB     7f1+      -0.0000    0.0000    0.0000   -0.0000   -0.0000    0.0000   -0.0000    0.0000   -0.0000    0.0000
      102 NB     8f1+      -0.0000    0.0000    0.0000   -0.0000   -0.0000    0.0000   -0.0000    0.0000    0.0000   -0.0000
      103 NB     4f2+       0.0000   -0.0000   -0.0000   -0.0000    0.0000   -0.0000    0.0000    0.0000   -0.0000    0.0009
      104 NB     5f2+       0.0000   -0.0000   -0.0000   -0.0000   -0.0000    0.0000   -0.0000    0.0000    0.0000   -0.0004
      105 NB     6f2+      -0.0000    0.0000    0.0000    0.0000    0.0000   -0.0000    0.0000    0.0000   -0.0000    0.0000
      106 NB     7f2+       0.0000    0.0000    0.0000   -0.0000    0.0000   -0.0000    0.0000   -0.0000   -0.0000    0.0001
      107 NB     8f2+       0.0000    0.0000    0.0000   -0.0000    0.0000    0.0000   -0.0000    0.0000    0.0000   -0.0000
      108 NB     4f3+      -0.0000    0.0000    0.0000    0.0000   -0.0000   -0.0000    0.0000    0.0000    0.0000   -0.0000
      109 NB     5f3+      -0.0000    0.0000    0.0000    0.0000    0.0000    0.0000   -0.0000   -0.0000   -0.0000    0.0000
      110 NB     6f3+       0.0000   -0.0000   -0.0000   -0.0000   -0.0000   -0.0000    0.0000    0.0000    0.0000   -0.0000
      111 NB     7f3+      -0.0000    0.0000    0.0000   -0.0000   -0.0000   -0.0000    0.0000    0.0000    0.0000   -0.0000
      112 NB     8f3+      -0.0000   -0.0000   -0.0000   -0.0000   -0.0000   -0.0000   -0.0000   -0.0000   -0.0000    0.0000
      113 NB     5g4-      -0.0000    0.0000   -0.0000   -0.0000   -0.0000   -0.0000   -0.0000   -0.0000   -0.0000   -0.0000
      114 NB     6g4-      -0.0000   -0.0000    0.0000    0.0000    0.0000   -0.0000   -0.0000   -0.0000   -0.0000   -0.0000
      115 NB     7g4-      -0.0000    0.0000   -0.0000    0.0000   -0.0000    0.0000    0.0000    0.0000    0.0000    0.0000
      116 NB     8g4-      -0.0000   -0.0000    0.0000   -0.0000   -0.0000    0.0000    0.0000    0.0000    0.0000    0.0000
      117 NB     5g3-      -0.0000   -0.0000    0.0000   -0.0000   -0.0000    0.0000    0.0000    0.0000    0.0000    0.0000
      118 NB     6g3-       0.0000    0.0000   -0.0000   -0.0000    0.0000    0.0000    0.0000   -0.0000    0.0000    0.0000
      119 NB     7g3-      -0.0000   -0.0000    0.0000    0.0000    0.0000   -0.0000   -0.0000    0.0000    0.0000    0.0000
      120 NB     8g3-       0.0000    0.0000   -0.0000    0.0000   -0.0000   -0.0000    0.0000   -0.0000    0.0000    0.0000
      121 NB     5g2-       0.0000   -0.0000    0.0000    0.0000    0.0000   -0.0000   -0.0000   -0.0000   -0.0000   -0.0000
      122 NB     6g2-      -0.0000    0.0000   -0.0000   -0.0000    0.0000   -0.0000   -0.0000   -0.0000   -0.0000   -0.0000
      123 NB     7g2-       0.0000   -0.0000    0.0000   -0.0000   -0.0000    0.0000    0.0000   -0.0000   -0.0000   -0.0000
      124 NB     8g2-      -0.0000    0.0000   -0.0000   -0.0000    0.0000    0.0000    0.0000    0.0000   -0.0000   -0.0000
      125 NB     5g1-      -0.0000   -0.0000    0.0000   -0.0000    0.0000   -0.0000   -0.0000   -0.0000    0.0000    0.0000
      126 NB     6g1-       0.0000    0.0000   -0.0000    0.0000   -0.0000   -0.0000   -0.0000   -0.0000    0.0000    0.0000
      127 NB     7g1-      -0.0000   -0.0000    0.0000   -0.0000    0.0000    0.0000    0.0000    0.0000    0.0000    0.0000
      128 NB     8g1-       0.0000    0.0000   -0.0000    0.0000    0.0000    0.0000    0.0000    0.0000    0.0000    0.0000
      129 NB     5g0       -0.0000   -0.0000   -0.0000   -0.0000   -0.0000    0.0000   -0.0000   -0.0000    0.0000    0.0000
      130 NB     6g0        0.0000    0.0000    0.0000    0.0000   -0.0000    0.0000   -0.0000   -0.0000   -0.0000    0.0000
      131 NB     7g0       -0.0000    0.0000   -0.0000   -0.0000    0.0000   -0.0000    0.0000    0.0000   -0.0000    0.0000
      132 NB     8g0        0.0000   -0.0000    0.0000    0.0000    0.0000   -0.0000    0.0000    0.0000   -0.0000   -0.0000
      133 NB     5g1+      -0.0000   -0.0000   -0.0000    0.0000   -0.0000    0.0000   -0.0000    0.0000    0.0000   -0.0000
      134 NB     6g1+       0.0000    0.0000    0.0000   -0.0000   -0.0000    0.0000   -0.0000    0.0000    0.0000   -0.0000
      135 NB     7g1+      -0.0000   -0.0000   -0.0000    0.0000    0.0000   -0.0000    0.0000   -0.0000    0.0000   -0.0000
      136 NB     8g1+       0.0000    0.0000    0.0000   -0.0000    0.0000   -0.0000    0.0000   -0.0000    0.0000   -0.0000
      137 NB     5g2+      -0.0000    0.0000    0.0000    0.0000   -0.0000   -0.0000    0.0000    0.0000    0.0000   -0.0000
      138 NB     6g2+       0.0000   -0.0000   -0.0000   -0.0000   -0.0000   -0.0000    0.0000    0.0000    0.0000   -0.0000
      139 NB     7g2+      -0.0000    0.0000    0.0000    0.0000    0.0000    0.0000   -0.0000    0.0000    0.0000   -0.0000
      140 NB     8g2+       0.0000   -0.0000   -0.0000   -0.0000    0.0000    0.0000   -0.0000   -0.0000    0.0000   -0.0000
      141 NB     5g3+       0.0000   -0.0000   -0.0000   -0.0000    0.0000    0.0000   -0.0000   -0.0000   -0.0000    0.0000
      142 NB     6g3+      -0.0000    0.0000    0.0000    0.0000    0.0000    0.0000   -0.0000   -0.0000   -0.0000    0.0000
      143 NB     7g3+       0.0000   -0.0000   -0.0000   -0.0000   -0.0000   -0.0000    0.0000    0.0000   -0.0000    0.0000
      144 NB     8g3+      -0.0000    0.0000    0.0000    0.0000   -0.0000   -0.0000    0.0000    0.0000   -0.0000    0.0000
      145 NB     5g4+      -0.0000    0.0000    0.0000   -0.0000   -0.0000    0.0000   -0.0000    0.0000   -0.0000    0.0000
      146 NB     6g4+      -0.0000   -0.0000   -0.0000    0.0000   -0.0000    0.0000   -0.0000    0.0000   -0.0000    0.0000
      147 NB     7g4+      -0.0000    0.0000    0.0000    0.0000    0.0000   -0.0000    0.0000   -0.0000    0.0000   -0.0000
      148 NB     8g4+      -0.0000   -0.0000   -0.0000   -0.0000    0.0000   -0.0000    0.0000   -0.0000    0.0000   -0.0000
      149 NB     6h5-       0.0000   -0.0000    0.0000   -0.0000    0.0000    0.0000    0.0000    0.0000   -0.0000   -0.0000
      150 NB     7h5-      -0.0000    0.0000   -0.0000    0.0000   -0.0000    0.0000    0.0000   -0.0000   -0.0000   -0.0000
      151 NB     6h4-      -0.0000   -0.0000    0.0000   -0.0000    0.0000    0.0000    0.0000    0.0000    0.0000    0.0000
      152 NB     7h4-       0.0000    0.0000   -0.0000    0.0000   -0.0000    0.0000    0.0000    0.0000    0.0000    0.0000
      153 NB     6h3-       0.0000    0.0000   -0.0000    0.0000    0.0000   -0.0000   -0.0000    0.0000   -0.0000   -0.0000
      154 NB     7h3-      -0.0000   -0.0000    0.0000    0.0000   -0.0000   -0.0000    0.0000    0.0000   -0.0000   -0.0000
      155 NB     6h2-       0.0000   -0.0000    0.0000   -0.0000    0.0000    0.0000    0.0000    0.0000   -0.0000   -0.0000
      156 NB     7h2-      -0.0000    0.0000   -0.0000   -0.0000    0.0000    0.0000    0.0000    0.0000   -0.0000   -0.0000
      157 NB     6h1-      -0.0000   -0.0000    0.0000   -0.0000   -0.0000   -0.0000   -0.0000   -0.0000    0.0000    0.0000
      158 NB     7h1-       0.0000    0.0000   -0.0000    0.0000    0.0000   -0.0000   -0.0000   -0.0000    0.0000    0.0000
      159 NB     6h0       -0.0000    0.0000   -0.0000   -0.0000   -0.0000    0.0000   -0.0000   -0.0000    0.0000    0.0000
      160 NB     7h0        0.0000   -0.0000   -0.0000    0.0000   -0.0000   -0.0000    0.0000   -0.0000    0.0000    0.0000
      161 NB     6h1+      -0.0000   -0.0000   -0.0000    0.0000    0.0000    0.0000   -0.0000   -0.0000    0.0000   -0.0000
      162 NB     7h1+       0.0000    0.0000    0.0000    0.0000    0.0000    0.0000   -0.0000   -0.0000    0.0000   -0.0000
      163 NB     6h2+      -0.0000    0.0000    0.0000    0.0000    0.0000    0.0000   -0.0000    0.0000    0.0000   -0.0000
      164 NB     7h2+       0.0000   -0.0000   -0.0000   -0.0000    0.0000    0.0000   -0.0000    0.0000    0.0000   -0.0000
      165 NB     6h3+      -0.0000    0.0000   -0.0000   -0.0000   -0.0000   -0.0000    0.0000    0.0000    0.0000   -0.0000
      166 NB     7h3+       0.0000    0.0000    0.0000    0.0000   -0.0000    0.0000    0.0000    0.0000    0.0000   -0.0000
      167 NB     6h4+      -0.0000   -0.0000   -0.0000    0.0000    0.0000   -0.0000    0.0000   -0.0000    0.0000   -0.0000
      168 NB     7h4+       0.0000    0.0000    0.0000   -0.0000    0.0000   -0.0000    0.0000   -0.0000    0.0000   -0.0000
      169 NB     6h5+      -0.0000    0.0000    0.0000    0.0000    0.0000    0.0000   -0.0000    0.0000    0.0000   -0.0000
      170 NB     7h5+       0.0000   -0.0000   -0.0000    0.0000    0.0000    0.0000   -0.0000    0.0000    0.0000   -0.0000

          Orbital           21        22        23        24    
          Energy           -1.5649   -1.5649   -1.5649   -1.2394
          Occ. No.          0.0000    0.0000    0.0000    0.0000

        1 NB     1s         0.0000    0.0000   -0.0000    0.0000
        2 NB     2s         0.0000    0.0000   -0.0000   -0.0000
        3 NB     3s         0.0000   -0.0000    0.0000   -0.0001
        4 NB     4s         0.0000   -0.0000    0.0000    0.0473
        5 NB     5s         0.0000    0.0000   -0.0005    0.8384
        6 NB     6s         0.0000   -0.0000    0.0003   -0.4718
        7 NB     7s         0.0000    0.0000   -0.0001    0.2321
        8 NB     8s        -0.0000    0.0000   -0.0001    0.1345
        9 NB     9s        -0.0000    0.0000   -0.0000    0.0149
       10 NB    10s        -0.0000    0.0000   -0.0000    0.0001
       11 NB     2px       -0.0000    0.0000   -0.0000   -0.0000
       12 NB     3px        0.0000   -0.0000    0.0000    0.0000
       13 NB     4px        0.0000   -0.0003    0.0000   -0.0000
       14 NB     5px       -0.0001    0.0013   -0.0000   -0.0000
       15 NB     6px        0.0001   -0.0007    0.0000    0.0000
       16 NB     7px        0.0000   -0.0003    0.0000    0.0000
       17 NB     8px       -0.0000    0.0001   -0.0000   -0.0000
       18 NB     9px       -0.0000    0.0001   -0.0000   -0.0000
       19 NB    10px       -0.0000    0.0000   -0.0000   -0.0000
       20 NB     2py        0.0000    0.0000   -0.0000   -0.0000
       21 NB     3py       -0.0000   -0.0000    0.0000    0.0000
       22 NB     4py       -0.0003   -0.0000   -0.0000   -0.0000
       23 NB     5py        0.0013    0.0001    0.0000   -0.0000
       24 NB     6py       -0.0007   -0.0001   -0.0000    0.0000
       25 NB     7py       -0.0003   -0.0000   -0.0000    0.0000
       26 NB     8py        0.0001    0.0000    0.0000    0.0000
       27 NB     9py        0.0001    0.0000    0.0000   -0.0000
       28 NB    10py        0.0000    0.0000    0.0000    0.0000
       29 NB     2pz       -0.0000   -0.0000    0.0000    0.0000
       30 NB     3pz        0.0000   -0.0000   -0.0000   -0.0000
       31 NB     4pz        0.0000   -0.0000   -0.0004    0.0005
       32 NB     5pz       -0.0000    0.0000    0.0013    0.0091
       33 NB     6pz        0.0000   -0.0000   -0.0008   -0.0033
       34 NB     7pz        0.0000   -0.0000   -0.0002   -0.0019
       35 NB     8pz       -0.0000    0.0000    0.0001    0.0001
       36 NB     9pz       -0.0000    0.0000    0.0001    0.0003
       37 NB    10pz       -0.0000    0.0000    0.0000    0.0000
       38 NB     3d2-       0.0000    0.0000    0.0000   -0.0000
       39 NB     4d2-       0.0273    0.0030    0.0000   -0.0000
       40 NB     5d2-      -0.0081   -0.0009   -0.0000    0.0000
       41 NB     6d2-       0.0004    0.0000    0.0000   -0.0000
       42 NB     7d2-       0.0011    0.0001    0.0000    0.0000
       43 NB     8d2-      -0.0003   -0.0000   -0.0000   -0.0000
       44 NB     9d2-      -0.0004   -0.0000   -0.0000    0.0000
       45 NB    10d2-       0.0001    0.0000    0.0000    0.0000
       46 NB     3d1-       0.0016    0.0002    0.0000    0.0000
       47 NB     4d1-       0.9515    0.1034    0.0000   -0.0000
       48 NB     5d1-      -0.2835   -0.0308   -0.0000   -0.0000
       49 NB     6d1-       0.0141    0.0015    0.0000    0.0000
       50 NB     7d1-       0.0369    0.0040    0.0000    0.0000
       51 NB     8d1-      -0.0102   -0.0011   -0.0000   -0.0000
       52 NB     9d1-      -0.0138   -0.0015   -0.0000   -0.0000
       53 NB    10d1-       0.0023    0.0002    0.0000   -0.0000
       54 NB     3d0       -0.0000    0.0000    0.0017    0.0000
       55 NB     4d0       -0.0000    0.0000    0.9574    0.0003
       56 NB     5d0        0.0000   -0.0000   -0.2853   -0.0009
       57 NB     6d0       -0.0000    0.0000    0.0142    0.0001
       58 NB     7d0       -0.0000    0.0000    0.0371    0.0002
       59 NB     8d0        0.0000   -0.0000   -0.0103   -0.0001
       60 NB     9d0        0.0000   -0.0000   -0.0138   -0.0001
       61 NB    10d0       -0.0000    0.0000    0.0023    0.0000
       62 NB     3d1+      -0.0002    0.0016   -0.0000   -0.0000
       63 NB     4d1+      -0.1034    0.9515   -0.0000   -0.0000
       64 NB     5d1+       0.0308   -0.2835    0.0000    0.0000
       65 NB     6d1+      -0.0015    0.0141   -0.0000   -0.0000
       66 NB     7d1+      -0.0040    0.0369   -0.0000   -0.0000
       67 NB     8d1+       0.0011   -0.0102    0.0000    0.0000
       68 NB     9d1+       0.0015   -0.0138    0.0000    0.0000
       69 NB    10d1+      -0.0002    0.0023   -0.0000   -0.0000
       70 NB     3d2+       0.0000   -0.0000    0.0000   -0.0000
       71 NB     4d2+       0.0030   -0.0273    0.0000    0.0000
       72 NB     5d2+      -0.0009    0.0081   -0.0000    0.0000
       73 NB     6d2+       0.0000   -0.0004    0.0000   -0.0000
       74 NB     7d2+       0.0001   -0.0011    0.0000    0.0000
       75 NB     8d2+      -0.0000    0.0003   -0.0000   -0.0000
       76 NB     9d2+      -0.0000    0.0004   -0.0000    0.0000
       77 NB    10d2+       0.0000   -0.0001    0.0000    0.0000
       78 NB     4f3-      -0.0000   -0.0000    0.0000    0.0000
       79 NB     5f3-       0.0000    0.0000    0.0000   -0.0000
       80 NB     6f3-      -0.0000   -0.0000    0.0000    0.0000
       81 NB     7f3-      -0.0000   -0.0000    0.0000    0.0000
       82 NB     8f3-       0.0000    0.0000   -0.0000    0.0000
       83 NB     4f2-       0.0001    0.0000    0.0000    0.0000
       84 NB     5f2-      -0.0000   -0.0000   -0.0000   -0.0000
       85 NB     6f2-      -0.0000   -0.0000    0.0000    0.0000
       86 NB     7f2-       0.0000    0.0000    0.0000   -0.0000
       87 NB     8f2-      -0.0000   -0.0000   -0.0000    0.0000
       88 NB     4f1-       0.0010    0.0001    0.0000    0.0000
       89 NB     5f1-      -0.0004   -0.0000   -0.0000   -0.0000
       90 NB     6f1-       0.0001    0.0000    0.0000    0.0000
       91 NB     7f1-       0.0001    0.0000    0.0000    0.0000
       92 NB     8f1-      -0.0000   -0.0000   -0.0000    0.0000
       93 NB     4f0       -0.0000    0.0000    0.0010   -0.0003
       94 NB     5f0        0.0000   -0.0000   -0.0004    0.0003
       95 NB     6f0       -0.0000    0.0000    0.0001    0.0002
       96 NB     7f0       -0.0000    0.0000    0.0001    0.0000
       97 NB     8f0        0.0000   -0.0000   -0.0000    0.0000
       98 NB     4f1+      -0.0001    0.0010   -0.0000   -0.0000
       99 NB     5f1+       0.0000   -0.0004    0.0000    0.0000
      100 NB     6f1+      -0.0000    0.0001   -0.0000    0.0000
      101 NB     7f1+      -0.0000    0.0001   -0.0000    0.0000
      102 NB     8f1+       0.0000   -0.0000    0.0000    0.0000
      103 NB     4f2+       0.0000   -0.0001    0.0000    0.0000
      104 NB     5f2+      -0.0000    0.0000   -0.0000   -0.0000
      105 NB     6f2+      -0.0000    0.0000   -0.0000   -0.0000
      106 NB     7f2+       0.0000   -0.0000    0.0000   -0.0000
      107 NB     8f2+      -0.0000    0.0000   -0.0000   -0.0000
      108 NB     4f3+      -0.0000    0.0000    0.0000   -0.0002
      109 NB     5f3+       0.0000   -0.0000   -0.0000    0.0002
      110 NB     6f3+       0.0000   -0.0000   -0.0000    0.0001
      111 NB     7f3+      -0.0000    0.0000    0.0000    0.0000
      112 NB     8f3+       0.0000   -0.0000   -0.0000    0.0000
      113 NB     5g4-       0.0000    0.0000    0.0000    0.0000
      114 NB     6g4-       0.0000    0.0000    0.0000    0.0000
      115 NB     7g4-       0.0000    0.0000    0.0000    0.0000
      116 NB     8g4-       0.0000    0.0000    0.0000    0.0000
      117 NB     5g3-       0.0000    0.0000    0.0000    0.0000
      118 NB     6g3-       0.0000    0.0000   -0.0000   -0.0000
      119 NB     7g3-       0.0000    0.0000    0.0000   -0.0000
      120 NB     8g3-       0.0000    0.0000   -0.0000    0.0000
      121 NB     5g2-      -0.0000   -0.0000   -0.0000    0.0000
      122 NB     6g2-      -0.0000   -0.0000   -0.0000   -0.0000
      123 NB     7g2-      -0.0000   -0.0000   -0.0000   -0.0000
      124 NB     8g2-      -0.0000   -0.0000   -0.0000    0.0000
      125 NB     5g1-      -0.0001   -0.0000   -0.0000   -0.0000
      126 NB     6g1-      -0.0001   -0.0000   -0.0000    0.0000
      127 NB     7g1-      -0.0000   -0.0000   -0.0000    0.0000
      128 NB     8g1-      -0.0000   -0.0000   -0.0000   -0.0000
      129 NB     5g0        0.0000   -0.0000   -0.0001   -0.0000
      130 NB     6g0        0.0000   -0.0000   -0.0001   -0.0000
      131 NB     7g0        0.0000   -0.0000   -0.0000   -0.0000
      132 NB     8g0        0.0000   -0.0000   -0.0000   -0.0000
      133 NB     5g1+       0.0000   -0.0001    0.0000   -0.0000
      134 NB     6g1+       0.0000   -0.0001    0.0000   -0.0000
      135 NB     7g1+       0.0000   -0.0000    0.0000   -0.0000
      136 NB     8g1+       0.0000   -0.0000    0.0000   -0.0000
      137 NB     5g2+      -0.0000    0.0000   -0.0000   -0.0000
      138 NB     6g2+      -0.0000    0.0000   -0.0000   -0.0000
      139 NB     7g2+      -0.0000    0.0000   -0.0000   -0.0000
      140 NB     8g2+      -0.0000    0.0000   -0.0000   -0.0000
      141 NB     5g3+       0.0000   -0.0000   -0.0000    0.0000
      142 NB     6g3+       0.0000   -0.0000   -0.0000    0.0000
      143 NB     7g3+       0.0000   -0.0000   -0.0000    0.0000
      144 NB     8g3+       0.0000   -0.0000   -0.0000    0.0000
      145 NB     5g4+      -0.0000    0.0000   -0.0000   -0.0000
      146 NB     6g4+      -0.0000    0.0000   -0.0000   -0.0000
      147 NB     7g4+      -0.0000    0.0000   -0.0000   -0.0000
      148 NB     8g4+      -0.0000    0.0000   -0.0000   -0.0000
      149 NB     6h5-      -0.0000   -0.0000   -0.0000   -0.0000
      150 NB     7h5-      -0.0000   -0.0000   -0.0000    0.0000
      151 NB     6h4-      -0.0000   -0.0000   -0.0000    0.0000
      152 NB     7h4-      -0.0000   -0.0000   -0.0000    0.0000
      153 NB     6h3-       0.0000    0.0000   -0.0000    0.0000
      154 NB     7h3-       0.0000    0.0000    0.0000   -0.0000
      155 NB     6h2-      -0.0000   -0.0000   -0.0000   -0.0000
      156 NB     7h2-      -0.0000   -0.0000   -0.0000    0.0000
      157 NB     6h1-      -0.0000   -0.0000    0.0000   -0.0000
      158 NB     7h1-      -0.0000   -0.0000   -0.0000    0.0000
      159 NB     6h0        0.0000   -0.0000   -0.0000   -0.0000
      160 NB     7h0        0.0000   -0.0000   -0.0000   -0.0000
      161 NB     6h1+       0.0000   -0.0000    0.0000    0.0000
      162 NB     7h1+       0.0000   -0.0000    0.0000    0.0000
      163 NB     6h2+      -0.0000    0.0000   -0.0000    0.0000
      164 NB     7h2+      -0.0000    0.0000   -0.0000    0.0000
      165 NB     6h3+       0.0000   -0.0000   -0.0000   -0.0000
      166 NB     7h3+       0.0000   -0.0000   -0.0000   -0.0000
      167 NB     6h4+       0.0000   -0.0000    0.0000    0.0000
      168 NB     7h4+       0.0000   -0.0000    0.0000    0.0000
      169 NB     6h5+      -0.0000    0.0000   -0.0000    0.0000
      170 NB     7h5+      -0.0000    0.0000   -0.0000    0.0000
--


++    Molecular charges:
      ------------------

      Mulliken charges per centre and basis function type
      ---------------------------------------------------

                NB    
      1s       2.0000
      2s       2.0000
      2px      2.0000
      2pz      2.0000
      2py      2.0000
      3s       2.0000
      3px      2.0000
      3pz      2.0000
      3py      2.0000
      4s       1.9947
      3d2+     2.0000
      3d1+     2.0000
      3d0      2.0000
      3d1-     2.0000
      3d2-     2.0000
      4px      1.9851
      4pz      1.9850
      4py      1.9851
      5s       0.0022
      4d2+     0.0000
      4d1+     0.0000
      4d0      0.0000
      4d1-     0.0000
      4d2-     0.0000
      5px      0.0079
      5pz      0.0079
      5py      0.0079
      6s       0.0015
      4f3+     0.0000
      4f2+     0.0000
      4f1+     0.0000
      4f0      0.0000
      4f1-     0.0000
      4f2-     0.0000
      4f3-     0.0000
      5d2+     0.0000
      5d1+     0.0000
      5d0      0.0000
      5d1-     0.0000
      5d2-     0.0000
      6px      0.0068
      6pz      0.0068
      6py      0.0068
      7s       0.0017
      5f3+     0.0000
      5f2+     0.0000
      5f1+     0.0000
      5f0      0.0000
      5f1-     0.0000
      5f2-     0.0000
      5f3-     0.0000
      6d2+     0.0000
      6d1+     0.0000
      6d0      0.0000
      6d1-     0.0000
      6d2-     0.0000
      7px      0.0000
      7pz      0.0000
      7py      0.0000
      5g4+     0.0000
      5g3+     0.0000
      5g2+     0.0000
      5g1+     0.0000
      5g0      0.0000
      5g1-     0.0000
      5g2-     0.0000
      5g3-     0.0000
      5g4-     0.0000
      6f3+     0.0000
      6f2+     0.0000
      6f1+     0.0000
      6f0      0.0000
      6f1-     0.0000
      6f2-     0.0000
      6f3-     0.0000
      6g4+     0.0000
      6g3+     0.0000
      6g2+     0.0000
      6g1+     0.0000
      6g0      0.0000
      6g1-     0.0000
      6g2-     0.0000
      6g3-     0.0000
      6g4-     0.0000
      6h5+     0.0000
      6h4+     0.0000
      6h3+     0.0000
      6h2+     0.0000
      6h1+     0.0000
      6h0      0.0000
      6h1-     0.0000
      6h2-     0.0000
      6h3-     0.0000
      6h4-     0.0000
      6h5-     0.0000
      7d2+     0.0000
      7d1+     0.0000
      7d0      0.0000
      7d1-     0.0000
      7d2-     0.0000
      7f3+     0.0000
      7f2+     0.0000
      7f1+     0.0000
      7f0      0.0000
      7f1-     0.0000
      7f2-     0.0000
      7f3-     0.0000
      7g4+     0.0000
      7g3+     0.0000
      7g2+     0.0000
      7g1+     0.0000
      7g0      0.0000
      7g1-     0.0000
      7g2-     0.0000
      7g3-     0.0000
      7g4-     0.0000
      7h5+     0.0000
      7h4+     0.0000
      7h3+     0.0000
      7h2+     0.0000
      7h1+     0.0000
      7h0      0.0000
      7h1-     0.0000
      7h2-     0.0000
      7h3-     0.0000
      7h4-     0.0000
      7h5-     0.0000
      8s       0.0000
      8px      0.0001
      8pz      0.0001
      8py      0.0001
      8d2+     0.0000
      8d1+     0.0000
      8d0      0.0000
      8d1-     0.0000
      8d2-     0.0000
      8f3+     0.0000
      8f2+     0.0000
      8f1+     0.0000
      8f0      0.0000
      8f1-     0.0000
      8f2-     0.0000
      8f3-     0.0000
      8g4+     0.0000
      8g3+     0.0000
      8g2+     0.0000
      8g1+     0.0000
      8g0      0.0000
      8g1-     0.0000
      8g2-     0.0000
      8g3-     0.0000
      8g4-     0.0000
      9s       0.0000
      9px      0.0000
      9pz      0.0000
      9py      0.0000
      9d2+     0.0000
      9d1+     0.0000
      9d0      0.0000
      9d1-     0.0000
      9d2-     0.0000
     10s       0.0000
     10px      0.0000
     10pz      0.0000
     10py      0.0000
     10d2+     0.0000
     10d1+     0.0000
     10d0      0.0000
     10d1-     0.0000
     10d2-     0.0000
      Total   36.0000

      N-E      5.0000

      Total electronic charge=   36.000000

      Total            charge=    5.000000
--

 Sorry, Molden does not know how to handle
 functions with angular momentum larger than g

++    Static properties:
      ------------------


      LoProp Charges per center


                   NB    
      Nuclear     41.0000
      Electronic -36.0000

      Total        5.0000
--


++    Molecular properties:
      ---------------------

      Charge (e):
                      =    5.0000
      Dipole Moment (Debye):
      Origin of the operator (Ang)=    0.0000    0.0000    0.0000
                   X=  2.3516E-10               Y= -1.3734E-12               Z= -9.9881E-03           Total=  9.9881E-03
      Center of Charge (Ang)
                     X=    0.00000000               Y=   -0.00000000               Z=   -0.00041589
      Quadrupole Moment (Debye*Ang):
      Origin of the operator (Ang)=    0.0000    0.0000    0.0000
                  XX= -7.8408E+00              XY= -2.2047E-14              XZ= -9.7929E-12              YY= -7.8408E+00
                  YZ= -4.4995E-14              ZZ= -7.8402E+00
      In traceless form (Debye*Ang)
                  XX= -3.1498E-04              XY= -3.3070E-14              XZ= -1.4689E-11              YY= -3.1498E-04
                  YZ= -6.7493E-14              ZZ=  6.2995E-04
--

 Sorry, Molden does not know how to handle
 functions with angular momentum larger than g
 ###############################################################################
 ###############################################################################
 ###                                                                         ###
 ###                                                                         ###
 ###    WARNING: RunFile label nBas                                          ###
 ###    was used       62 times                                              ###
 ###                                                                         ###
 ###                                                                         ###
 ###############################################################################
 ###############################################################################
Note: The following floating-point exceptions are signalling: IEEE_UNDERFLOW_FLAG IEEE_DENORMAL
--- Stop Module: scf at Mon Dec 23 16:06:14 2024 /rc=_RC_ALL_IS_WELL_ ---
*** files: niobium_so_cf.LprOrb niobium_so_cf.ScfOrb xmldump
    saved to directory /home4/s4752295/Internship/Initial_simulations/Point_charge_model/1_electron/active_space_9_non_rel/Nb/varying_bond_length
--- Module scf spent 6 seconds ---

*** symbolic link created: INPORB -> niobium_so_cf.ScfOrb
--- Start Module: rasscf at Mon Dec 23 16:06:14 2024 ---

()()()()()()()()()()()()()()()()()()()()()()()()()()()()()()()()()()()()()()()()()()()()()()()()()()

                                              &RASSCF

                                   only a single process is used
                       available to each process: 4.1 GB of memory, 1 thread?
                                            pid: 873421
()()()()()()()()()()()()()()()()()()()()()()()()()()()()()()()()()()()()()()()()()()()()()()()()()()


      Header of the ONEINT file:
      --------------------------
      
      Integrals generated by seward 4.2.0  , Mon Dec 23 16:06:00 2024


      OrdInt status: non-squared


      Cartesian coordinates in Angstrom:
      -----------------------------------------------------
      No.  Label        X            Y            Z        
      -----------------------------------------------------
       1   NB         0.00000000   0.00000000   0.00000000
      -----------------------------------------------------
      Nuclear repulsion energy =   -9.64138744

++    Wave function specifications:
      -----------------------------

      Number of closed shell electrons          36
      Number of electrons in active shells       1
      Max number of holes in RAS1 space          0
      Max nr of electrons in RAS3 space          0
      Number of inactive orbitals               18
      Number of active orbitals                  9
      Number of secondary orbitals             143
      Spin quantum number                      0.5
      State symmetry                             1
--

++    Orbital specifications:
      -----------------------

      Symmetry species                           1
                                                 a
      Frozen orbitals                            0
      Inactive orbitals                         18
      Active orbitals                            9
      RAS1 orbitals                              0
      RAS2 orbitals                              9
      RAS3 orbitals                              0
      Secondary orbitals                       143
      Deleted orbitals                           0
      Number of basis functions                170
--

++    CI expansion specifications:
      ----------------------------

      Number of CSFs                             9
      Number of determinants                     9
      Number of root(s) required                 9
      Root chosen for geometry opt.              9
      CI roots used                              1     2     3     4     5     6     7     8     9
      weights                                0.111 0.111 0.111 0.111 0.111 0.111 0.111 0.111 0.111
      highest root included in the CI            9
      max. size of the explicit Hamiltonian      9
--

++    Optimization specifications:
      ----------------------------

      RASSCF algorithm: Conventional
      Maximum number of macro iterations       200
      Maximum number of SX iterations          100
      Threshold for RASSCF energy            0.100E-07
      Threshold for max MO rotation          0.100E+00
      Threshold for max BLB element          0.100E-03
      Level shift parameter                  0.500E+00
      Make Quasi-Newton update
--

      The MO-coefficients are taken from the file:
      INPORB                                                                                                                          
      Title: SCF orbitals                                                                  

      Total molecular charge    4.00

      Molecular orbitals exchanged:
        In symmetry  1 :  19  24
        In symmetry  1 :  20  25
        In symmetry  1 :  21  26
        In symmetry  1 :  22  27


      ************************************************************************************************************************
[...]
    3         0.000000       1 0.5  1.0000    9 0.5  0.0000    8 0.5  0.0000    7 0.5  0.0000    6 0.5  0.0000
    4         0.000000       1 0.5  1.0000    9 0.5  0.0000    8 0.5  0.0000    7 0.5  0.0000    6 0.5  0.0000
    5         0.000155       4 0.5  1.0000    9 0.5  0.0000    8 0.5  0.0000    7 0.5  0.0000    6 0.5  0.0000
    6         0.000155       4 0.5  1.0000    9 0.5  0.0000    8 0.5  0.0000    7 0.5  0.0000    6 0.5  0.0000
    7         0.000155       3 0.5  1.0000    9 0.5  0.0000    8 0.5  0.0000    7 0.5  0.0000    6 0.5  0.0000
    8         0.000155       3 0.5  1.0000    9 0.5  0.0000    8 0.5  0.0000    7 0.5  0.0000    6 0.5  0.0000
    9         0.000207       5 0.5  1.0000    9 0.5  0.0000    8 0.5  0.0000    7 0.5  0.0000    6 0.5  0.0000
   10         0.000207       5 0.5  1.0000    9 0.5  0.0000    8 0.5  0.0000    7 0.5  0.0000    6 0.5  0.0000
   11         0.339026       6 0.5  1.0000    9 0.5  0.0000    8 0.5  0.0000    7 0.5  0.0000    5 0.5  0.0000
   12         0.339026       6 0.5  1.0000    9 0.5  0.0000    8 0.5  0.0000    7 0.5  0.0000    5 0.5  0.0000
   13         0.585781       8 0.5  1.0000    9 0.5  0.0000    7 0.5  0.0000    6 0.5  0.0000    5 0.5  0.0000
   14         0.585781       8 0.5  1.0000    9 0.5  0.0000    7 0.5  0.0000    6 0.5  0.0000    5 0.5  0.0000
   15         0.585781       7 0.5  1.0000    9 0.5  0.0000    8 0.5  0.0000    6 0.5  0.0000    5 0.5  0.0000
   16         0.585781       7 0.5  1.0000    9 0.5  0.0000    8 0.5  0.0000    6 0.5  0.0000    5 0.5  0.0000
   17         0.586540       9 0.5  1.0000    8 0.5  0.0000    7 0.5  0.0000    6 0.5  0.0000    5 0.5  0.0000
   18         0.586540       9 0.5  1.0000    8 0.5  0.0000    7 0.5  0.0000    6 0.5  0.0000    5 0.5  0.0000
 -------------------------------------------------------------------------------------------------------


      ****************************************************************************************************
      *                                                                                                  *
      *                                    Special properties section                                    *
      *                                                                                                  *
      ****************************************************************************************************


++ Dipole transition strengths (SO states):
   ----------------------------------------
    for osc. strength at least    1.0000000000000001E-005

      From   To        Osc. strength     Einstein coefficients Ax, Ay, Az (sec-1)    Total A (sec-1)
     -----------------------------------------------------------------------------------------------
         1   13       9.14428715E-02  8.24299023E+08  1.83062431E+08  8.00927054E+05  1.00816238E+09
         1   15       9.13711502E-02  1.83062430E+08  8.24299028E+08  1.01908114E+04  1.00737165E+09
         1   17       7.40867146E-05  7.57958141E+05  6.09680070E+04  7.57541349E-09  8.18926148E+05
         2   14       9.14428715E-02  8.24299023E+08  1.83062431E+08  8.00927054E+05  1.00816238E+09
         2   16       9.13711502E-02  1.83062430E+08  8.24299028E+08  1.01908114E+04  1.00737165E+09
         2   18       7.40867146E-05  7.57958141E+05  6.09680070E+04  7.57541349E-09  8.18926148E+05
         3   13       9.13711500E-02  1.83062430E+08  8.24299026E+08  1.01908872E+04  1.00737165E+09
         3   15       9.14428718E-02  8.24299027E+08  1.83062431E+08  8.00924880E+05  1.00816238E+09
         3   17       7.40866621E-05  6.09679603E+04  7.57957608E+05  2.88404838E-09  8.18925568E+05
         4   14       9.13711500E-02  1.83062430E+08  8.24299026E+08  1.01908872E+04  1.00737165E+09
         4   16       9.14428718E-02  8.24299027E+08  1.83062431E+08  8.00924880E+05  1.00816238E+09
         4   18       7.40866621E-05  6.09679603E+04  7.57957608E+05  2.88404838E-09  8.18925568E+05
         5   11       1.05730751E-05  2.28741678E+02  3.87815746E+04  7.36678168E-12  3.90103163E+04
         5   13       7.65730202E-04  4.54138844E+04  7.53877146E+05  7.63846902E+06  8.43776005E+06
         5   15       9.03935383E-02  7.53876157E+05  4.54137041E+04  9.95268234E+08  9.96067524E+08
         5   17       9.15493426E-02  5.93057115E+06  1.00548746E+09  2.57964201E-07  1.01141803E+09
         6   12       1.05730751E-05  2.28741678E+02  3.87815746E+04  7.36678168E-12  3.90103163E+04
         6   14       7.65730202E-04  4.54138844E+04  7.53877146E+05  7.63846902E+06  8.43776005E+06
         6   16       9.03935383E-02  7.53876157E+05  4.54137041E+04  9.95268234E+08  9.96067524E+08
         6   18       9.15493426E-02  5.93057115E+06  1.00548746E+09  2.57964201E-07  1.01141803E+09
         7   11       1.05730752E-05  3.87815747E+04  2.28741677E+02  2.27234060E-11  3.90103164E+04
         7   13       9.03935383E-02  7.53878957E+05  4.54138650E+04  9.95268232E+08  9.96067525E+08
         7   15       7.65730185E-04  4.54139300E+04  7.53876931E+05  7.63846900E+06  8.43775986E+06
         7   17       9.15493425E-02  1.00548746E+09  5.93057112E+06  1.37762641E-06  1.01141803E+09
         8   12       1.05730752E-05  3.87815747E+04  2.28741677E+02  2.27234060E-11  3.90103164E+04
         8   14       9.03935383E-02  7.53878957E+05  4.54138650E+04  9.95268232E+08  9.96067525E+08
         8   16       7.65730185E-04  4.54139300E+04  7.53876931E+05  7.63846900E+06  8.43775986E+06
         8   18       9.15493425E-02  1.00548746E+09  5.93057112E+06  1.37762641E-06  1.01141803E+09
         9   11       1.10863646E-05  4.48197300E-11  5.25606936E-12  4.08914838E+04  4.08914838E+04
         9   13       3.07268159E-02  3.29498187E+08  9.02713727E+06  6.97463910E-07  3.38525324E+08
         9   15       3.07268155E-02  9.02713722E+06  3.29498182E+08  2.53578653E-07  3.38525320E+08
         9   17       1.21184923E-01  1.42278960E-06  1.31945480E-07  1.33858626E+09  1.33858626E+09
        10   12       1.10863646E-05  4.48197300E-11  5.25606936E-12  4.08914838E+04  4.08914838E+04
        10   14       3.07268159E-02  3.29498187E+08  9.02713727E+06  6.97463910E-07  3.38525324E+08
        10   16       3.07268155E-02  9.02713722E+06  3.29498182E+08  2.53578653E-07  3.38525320E+08
        10   18       1.21184923E-01  1.42278960E-06  1.31945480E-07  1.33858626E+09  1.33858626E+09
        11   13       4.00381651E-01  7.62395815E+08  2.08870701E+07  1.85539201E-07  7.83282885E+08
        11   15       4.00381651E-01  2.08870701E+07  7.62395815E+08  5.37132744E-09  7.83282885E+08
        11   17       4.00860468E-01  1.92296218E-07  3.96523460E-12  7.89047383E+08  7.89047383E+08
        12   14       4.00381651E-01  7.62395815E+08  2.08870701E+07  1.85539201E-07  7.83282885E+08
        12   16       4.00381651E-01  2.08870701E+07  7.62395815E+08  5.37132744E-09  7.83282885E+08
        12   18       4.00860468E-01  1.92296218E-07  3.96523460E-12  7.89047383E+08  7.89047383E+08
     -----------------------------------------------------------------------------------------------
--

++ Velocity transition strengths (SO states):
   ------------------------------------------
    for osc. strength at least    1.0000000000000001E-005

      From   To        Osc. strength     Einstein coefficients Ax, Ay, Az (sec-1)    Total A (sec-1)
     -----------------------------------------------------------------------------------------------
         1    5       3.60935183E-05  3.31199845E-03  2.43981914E-02  1.87552309E-07  2.77103774E-02
         1    7       3.60992372E-05  2.43981915E-02  3.31199853E-03  4.57803244E-06  2.77147680E-02
         1   13       7.47904560E-02  6.74190286E+08  1.49725899E+08  6.55321044E+05  8.24571507E+08
         1   15       7.47317736E-02  1.49725899E+08  6.74190290E+08  8.33815410E+03  8.23924528E+08
         1   17       6.06445903E-05  6.20438104E+05  4.99062846E+04  6.22683153E-09  6.70344389E+05
         2    6       3.60935183E-05  3.31199845E-03  2.43981914E-02  1.87552309E-07  2.77103774E-02
         2    8       3.60992372E-05  2.43981915E-02  3.31199853E-03  4.57803244E-06  2.77147680E-02
         2   14       7.47904560E-02  6.74190286E+08  1.49725899E+08  6.55321044E+05  8.24571507E+08
         2   16       7.47317736E-02  1.49725899E+08  6.74190290E+08  8.33815410E+03  8.23924528E+08
         2   18       6.06445903E-05  6.20438104E+05  4.99062846E+04  6.22683153E-09  6.70344389E+05
         3    5       3.60992367E-05  2.43981912E-02  3.31199848E-03  4.57799685E-06  2.77147677E-02
         3    7       3.60935186E-05  3.31199848E-03  2.43981916E-02  1.87554623E-07  2.77103777E-02
         3   13       7.47317734E-02  1.49725899E+08  6.74190289E+08  8.33821609E+03  8.23924526E+08
         3   15       7.47904562E-02  6.74190290E+08  1.49725900E+08  6.55319266E+05  8.24571509E+08
         3   17       6.06445474E-05  4.99062464E+04  6.20437668E+05  2.36353466E-09  6.70343914E+05
         4    6       3.60992367E-05  2.43981912E-02  3.31199848E-03  4.57799685E-06  2.77147677E-02
         4    8       3.60935186E-05  3.31199848E-03  2.43981916E-02  1.87554623E-07  2.77103777E-02
         4   14       7.47317734E-02  1.49725899E+08  6.74190289E+08  8.33821609E+03  8.23924526E+08
         4   16       7.47904562E-02  6.74190290E+08  1.49725900E+08  6.55319266E+05  8.24571509E+08
         4   18       6.06445474E-05  4.99062464E+04  6.20437668E+05  2.36353466E-09  6.70343914E+05
         5    9       3.06371712E-04  1.58764695E-04  2.69174590E-02  5.25401906E-20  2.70762237E-02
         5   13       6.26101251E-04  3.71201465E+04  6.16199879E+05  6.24585998E+06  6.89918000E+06
         5   15       7.39131423E-02  6.16199071E+05  3.71199991E+04  8.13815702E+08  8.14469021E+08
         5   17       7.48866440E-02  4.85117754E+06  8.22483710E+08  2.10846970E-07  8.27334888E+08
         6   10       3.06371712E-04  1.58764695E-04  2.69174590E-02  5.25401906E-20  2.70762237E-02
         6   14       6.26101251E-04  3.71201465E+04  6.16199879E+05  6.24585998E+06  6.89918000E+06
         6   16       7.39131423E-02  6.16199071E+05  3.71199991E+04  8.13815702E+08  8.14469021E+08
         6   18       7.48866440E-02  4.85117754E+06  8.22483710E+08  2.10846970E-07  8.27334888E+08
         7    9       3.06371716E-04  2.69174594E-02  1.58764699E-04  1.69246994E-17  2.70762241E-02
         7   13       7.39131424E-02  6.16201360E+05  3.71201307E+04  8.13815700E+08  8.14469022E+08
         7   15       6.26101237E-04  3.71201838E+04  6.16199704E+05  6.24585996E+06  6.89917985E+06
         7   17       7.48866439E-02  8.22483710E+08  4.85117752E+06  1.12646372E-06  8.27334887E+08
         8   10       3.06371716E-04  2.69174594E-02  1.58764699E-04  1.69246994E-17  2.70762241E-02
         8   14       7.39131424E-02  6.16201360E+05  3.71201307E+04  8.13815700E+08  8.14469022E+08
         8   16       6.26101237E-04  3.71201838E+04  6.16199704E+05  6.24585996E+06  6.89917985E+06
         8   18       7.48866439E-02  8.22483710E+08  4.85117752E+06  1.12646372E-06  8.27334887E+08
         9   13       2.51437600E-02  2.69629374E+08  7.38693403E+06  5.70495032E-07  2.77016308E+08
         9   15       2.51437597E-02  7.38693399E+06  2.69629370E+08  2.07393714E-07  2.77016304E+08
         9   17       9.90773132E-02  1.16365398E-06  1.07951766E-07  1.09439349E+09  1.09439349E+09
        10   14       2.51437600E-02  2.69629374E+08  7.38693403E+06  5.70495032E-07  2.77016308E+08
        10   16       2.51437597E-02  7.38693399E+06  2.69629370E+08  2.07393714E-07  2.77016304E+08
        10   18       9.90773132E-02  1.16365398E-06  1.07951766E-07  1.09439349E+09  1.09439349E+09
        11   13       3.74549957E-01  7.13210288E+08  1.95395528E+07  1.73576773E-07  7.32749841E+08
        11   15       3.74549957E-01  1.95395528E+07  7.13210288E+08  5.02409313E-09  7.32749841E+08
        11   17       3.74936931E-01  1.79845181E-07  3.70014259E-12  7.38022472E+08  7.38022472E+08
        12   14       3.74549957E-01  7.13210288E+08  1.95395528E+07  1.73576773E-07  7.32749841E+08
        12   16       3.74549957E-01  1.95395528E+07  7.13210288E+08  5.02409313E-09  7.32749841E+08
        12   18       3.74936931E-01  1.79845181E-07  3.70014259E-12  7.38022472E+08  7.38022472E+08
     -----------------------------------------------------------------------------------------------
--

++ Length and velocity gauge comparison (SO states):

 --------------------------------------------------
 A comparison between the dipole oscillator strengths in 
 length and velocity gauge will be performed

 All dipole oscillator differences above the tolerance of   0.10000000000000001       will be printed 

 Due to basis set deficiency these oscillator may be problematic 

 The tolerance is defined as ABS(1-O_l/O_v) 
 O_l : dipole oscillator strength in length gauge
 O_p : dipole oscillator strength in velocity gauge
 --------------------------------------------------

  Problematic transitions have been found

      From   To       Difference (%) Osc. st. (len.) Osc. st. (vel.)
     ---------------------------------------------------------------
         1    5      --------------- below threshold  3.60935183E-05
         1    7      --------------- below threshold  3.60992372E-05
         1   13            22.265429  9.14428715E-02  7.47904560E-02
         1   15            22.265465  9.13711502E-02  7.47317736E-02
         1   17            22.165414  7.40867146E-05  6.06445903E-05
         2    6      --------------- below threshold  3.60935183E-05
         2    8      --------------- below threshold  3.60992372E-05
         2   14            22.265429  9.14428715E-02  7.47904560E-02
         2   16            22.265465  9.13711502E-02  7.47317736E-02
         2   18            22.165414  7.40867146E-05  6.06445903E-05
         3    5      --------------- below threshold  3.60992367E-05
         3    7      --------------- below threshold  3.60935186E-05
         3   13            22.265465  9.13711500E-02  7.47317734E-02
         3   15            22.265429  9.14428718E-02  7.47904562E-02
         3   17            22.165414  7.40866621E-05  6.06445474E-05
         4    6      --------------- below threshold  3.60992367E-05
         4    8      --------------- below threshold  3.60935186E-05
         4   14            22.265465  9.13711500E-02  7.47317734E-02
         4   16            22.265429  9.14428718E-02  7.47904562E-02
         4   18            22.165414  7.40866621E-05  6.06445474E-05
         5    9      --------------- below threshold  3.06371712E-04
         5   11      ---------------  1.05730751E-05 below threshold
         5   13            22.301337  7.65730202E-04  6.26101251E-04
         5   15            22.296976  9.03935383E-02  7.39131423E-02
         5   17            22.250561  9.15493426E-02  7.48866440E-02
         6   10      --------------- below threshold  3.06371712E-04
         6   12      ---------------  1.05730751E-05 below threshold
         6   14            22.301337  7.65730202E-04  6.26101251E-04
         6   16            22.296976  9.03935383E-02  7.39131423E-02
         6   18            22.250561  9.15493426E-02  7.48866440E-02
         7    9      --------------- below threshold  3.06371716E-04
         7   11      ---------------  1.05730752E-05 below threshold
         7   13            22.296976  9.03935383E-02  7.39131424E-02
         7   15            22.301337  7.65730185E-04  6.26101237E-04
         7   17            22.250561  9.15493425E-02  7.48866439E-02
         8   10      --------------- below threshold  3.06371716E-04
         8   12      ---------------  1.05730752E-05 below threshold
         8   14            22.296976  9.03935383E-02  7.39131424E-02
         8   16            22.301337  7.65730185E-04  6.26101237E-04
         8   18            22.250561  9.15493425E-02  7.48866439E-02
         9   11      ---------------  1.10863646E-05 below threshold
         9   13            22.204539  3.07268159E-02  2.51437600E-02
         9   15            22.204539  3.07268155E-02  2.51437597E-02
         9   17            22.313494  1.21184923E-01  9.90773132E-02
        10   12      ---------------  1.10863646E-05 below threshold
        10   14            22.204539  3.07268159E-02  2.51437600E-02
        10   16            22.204539  3.07268155E-02  2.51437597E-02
        10   18            22.313494  1.21184923E-01  9.90773132E-02
     ---------------------------------------------------------------

 Number of problematic transitions =                    48

--

 Electric-dipole - electric-octupole not included
++ I/O STATISTICS
 
  I. General I/O information
  - - - - - - - - - - - - - - - - - - - - - - - - - - - - - - - - - - - - - - - - - - -
  Unit  Name          Flsize      Write/Read            MBytes           Write/Read
                      (MBytes)       Calls              In/Out           Time, sec.
  - - - - - - - - - - - - - - - - - - - - - - - - - - - - - - - - - - - - - - - - - - -
   1  SCRATCH           0.00 .       9/      45 .      0.0/      0.0 .       0/       0
   2  ANNI              0.00 .       0/       0 .      0.0/      0.0 .       0/       0
   3  RUNFILE          14.67 .     322/    9923 .      2.3/     72.0 .       0/       0
   4  ONEINT            5.14 .       0/   22237 .      0.0/   3722.5 .       0/       0
   5  JOBIPH            5.92 .       0/      92 .      0.0/      0.7 .       0/       0
   6  ORDINT          403.03 .       1/    3225 .      0.0/    806.0 .       0/       0
  - - - - - - - - - - - - - - - - - - - - - - - - - - - - - - - - - - - - - - - - - - -
   *  TOTAL           428.76 .     332/   35522 .      2.3/   4601.2 .       0/       0
  - - - - - - - - - - - - - - - - - - - - - - - - - - - - - - - - - - - - - - - - - - -
 
  II. I/O Access Patterns
  - - - - - - - - - - - - - - - - - - - -
  Unit  Name               % of random
                         Write/Read calls
  - - - - - - - - - - - - - - - - - - - -
   1  SCRATCH             88.9/ 100.0
   2  ANNI                 0.0/   0.0
   3  RUNFILE             28.6/  10.8
   4  ONEINT               0.0/  17.4
   5  JOBIPH               0.0/  76.1
   6  ORDINT             100.0/   0.1
  - - - - - - - - - - - - - - - - - - - -
--
--- Stop Module: rassi at Mon Dec 23 16:06:40 2024 /rc=_RC_ALL_IS_WELL_ ---
*** files: xmldump
    saved to directory /home4/s4752295/Internship/Initial_simulations/Point_charge_model/1_electron/active_space_9_non_rel/Nb/varying_bond_length
--- Module rassi spent 2 seconds ---

.##################.
.# Happy landing! #.
.##################.

    Timing: Wall=39.87 User=31.22 System=6.03

###############################################################################
Hbrk Cluster
Job 14397947 for user s4752295
Finished at: Mon Dec 23 16:06:40 CET 2024

Job details:
============

Job ID                         : 14397947
Name                           : Nb_no_c_light
User                           : s4752295
Partition                      : regularmedium
Nodes                          : node101
Number of Nodes                : 1
Cores                          : 1
Number of Tasks                : 1
State                          : RUNNING  
Submit                         : 2024-12-23T16:05:56
Start                          : 2024-12-23T16:05:57
End                            : --
Reserved walltime              : 15:00:00
Used walltime                  : 00:00:43
Used CPU time                  : -- 
% User (Computation)           : --
% System (I/O)                 : --
Total memory reserved          : 25000M
Maximum memory used            : --

Acknowledgements:
=================

Please see this page for information about acknowledging Hbrk in your publications:

https://wiki.hpc.rug.nl/habrok/introduction/scientific_output

################################################################################
