   This run of MOLCAS is using the pymolcas driver

                             OPE
                             OPE          NMOL  CASOP  ENMOLC A   SO
                 OPE        NMOLC        AS  OP EN  MO LC     AS  OP
                OPENM       OL CA        SO  PE NM  OL CA     SOP EN
                OP EN      MO   LC       AS  OP ENMOL  CASO   PENMOL
                OP  EN     MO   LC       AS  OP EN     MO     LC ASO
               OP   E  NMOL  C  AS       OP  EN MO     LC     AS  OP
               OP  E   NMO   LC AS        OPEN  MO     LCASOP EN   M
               O  PEN   MO  LCA  SO
            OPE   NMO   L   CAS    OP
        OPENMOL  CASOP     ENMOL   CASOPE
     OPENMOLCA   SOPENMOLCASOPEN   MOLCASOPE
    OPENMOLCAS   OP           EN   MOL    CAS
    OPENMOLCAS       OP  ENM        O     LCA
    OPENMOLCAS    OPEN  MOLCASO     P  E  NMO
    OPENMOLCAS     OP               E  N  MOL
    OPENMOLCA   SO           PENM   O  L  CAS    OPEN    MO    LCAS
    OPENMOLCA   SOP           ENM   O  L  CAS   OP  EN  MOLC  AS   O
    OPENMOLCA   SOPE           NM      O  LCA   S      OP  EN MO
    OPENMOLC                AS         O  PEN   M      OL  CA  SOPE
    OPENMO        LCASOPE  NMOL        C  ASO   P      ENMOLC     AS
    OPE     NMO      LCA  SO     P     E   NM   OL  CA SO  PE N   MO
          OPENMOLCA            SOPE   NMO        LCAS  O    P  ENMO
     OPENMOLCASOPENMOLCASOPENMOLCASOPENMOLCA
        OPENMOLCASOPENMOLCASOPENMOLCASOPE
            OPENMOLCASOPENMOLCASOPENM
               OPENMOLCASOPENMOLCA        version: o91e1abe7de707b ?
                   OPENMOLCASO
                       OPE                tag:

 OpenMolcas is free software; you can redistribute it and/or modify it
 under the terms of the GNU Lesser General Public License version 2.1.
 OpenMolcas is distributed in the hope that it will be useful, but it
 is provided "as is" and without any express or implied warranties.
 For more details see the full text of the license in the file
 LICENSE or in <http://www.gnu.org/licenses/>.

                 Copyright (C) The OpenMolcas Authors
           For the author list and the recommended citation,
                   consult the file CONTRIBUTORS.md

           *************************************************
           * pymolcas version py2.10                       *
           *   build 3068ae8b88c9345ec6cfef6fef7f1169      *
           *   (after the EMIL interpreter by V. Veryazov) *
           *************************************************

configuration info
------------------
Host name: login1 (Linux)
C Compiler ID: GNU
C flags: -std=gnu99
Fortran Compiler ID: GNU
Fortran flags: -fno-aggressive-loop-optimizations -cpp -fdefault-integer-8 -fmax-stack-var-size=1048576
Definitions: _MOLCAS_;_I8_;_LINUX_;_MKL_
Parallel: OFF (GA=OFF)


   ----------------------------------------------------------------------------------------------------------------------------------------------
  |
  |           Project: niobium_so_cf
  |    Submitted from: /home4/s4752295/Internship/Initial_simulations/Point_charge_model/1_electron/active_space_9_non_rel/Nb/varying_bond_length
  |      Scratch area: /tmp/niobium_so_cf
  |   Save outputs to: /home4/s4752295/Internship/Initial_simulations/Point_charge_model/1_electron/active_space_9_non_rel/Nb/varying_bond_length
  |            Molcas: /home4/s4752295/Internship/Molcas/recomp_try/OpenMolcas-master/build
  |
  | Scratch area is empty
  |
  |    MOLCAS_DRIVER = /home4/s4752295/Internship/Molcas/bin/pymolcas
  |    MOLCAS_NPROCS = 1
  |    MOLCAS_SOURCE = /home4/s4752295/Internship/Molcas/recomp_try/OpenMolcas-master
  | MOLCAS_STRUCTURE = 0
  |
   ----------------------------------------------------------------------------------------------------------------------------------------------

++ ---------   Input file   ---------

&SEWARD
AMFi

CLIG
$R

Basis Set
Nb.ANO-rcc.Roos.21s18p13d6f4g2h.10s9p8d5f4g2h.
Spherical d
Nb            0.0       0.0     0.0
End of Basis

Xfield

4
0.000000,  0.000000,  0.47250   -1.0
0.409197,  0.000000, -0.23625   -1.0
-0.204599,  0.354375, -0.23625  -1.0
-0.204599, -0.354375, -0.23625  -1.0

End of input

&SCF
Occupied
18
Iterations
   50  100
End of Input

&RASSCF
LumOrb
Symmetry
1
Spin
2
Nactel
1 0 0
CIRoot
9 9 1
inactive
18
ras2
9
Alter
4
1 19 24
1 20 25
1 21 26
1 22 27
End of Input

>>> COPY niobium_so_cf.JobIph $SLURM_SUBMIT_DIR/niobium_so_cf.doublet.JobIph

>>> COPY $SLURM_SUBMIT_DIR/niobium_so_cf.doublet.JobIph ./JOB002

&RASSI
NROFJobIph
1 All
SpinOrbit
End of Input

EOF

-- ----------------------------------

--- Start Module: seward at Thu Jan  9 20:15:23 2025 ---

()()()()()()()()()()()()()()()()()()()()()()()()()()()()()()()()()()()()()()()()()()()()()()()()()()

                                              &SEWARD

                                   only a single process is used
                       available to each process: 4.1 GB of memory, 1 thread?
                                            pid: 516245
()()()()()()()()()()()()()()()()()()()()()()()()()()()()()()()()()()()()()()()()()()()()()()()()()()

 The speed of LIGHT in this CALCULATION =   137.03599917700001     
               SEWARD will generate:
                  Multipole Moment integrals up to order  2
                  Kinetic Energy integrals
                  Nuclear Attraction integrals (point charge)
                  One-Electron Hamiltonian integrals
                  Velocity integrals
                  Relativistic Douglas-Kroll-Hess integrals:
                    - Parametrization         : EXP
                    - DKH order of Hamiltonian: 2
                    - DKH order of Properties : 0
                         - multipole moment operators
                         - electric potential operators
                         - contact operators
                  External field from     4 point(s) added to the one-electron Hamiltonian
                  Orbital angular momentum around ( 0.0000  0.0000  0.0000 )
                  Velocity quadrupole around ( 0.0000  0.0000  0.0000 )
                  Atomic mean-field integrals
                  Two-Electron Repulsion integrals

                   Integrals are discarded if absolute value <: 0.10E-13
                   Integral cutoff threshold is set to       <: 0.10E-15

++    Symmetry information:
      ---------------------

                    Character Table for C1 

                             E  
                    a        1  x, y, xy, Rz, z, xz, Ry, yz, Rx, I
--


++    Basis set information:
      ----------------------


      Basis set label: NB.ANO-RCC.ROOS.21S18P13D6F4G2H.10S9P8D5F4G2H......

      Electronic valence basis set:
      ------------------
      Associated Effective Charge  41.000000 au
      Associated Actual Charge     41.000000 au
      Nuclear Model: Point charge

      Shell  nPrim  nBasis  Cartesian Spherical Contaminant
         s      21      10        X                  
         p      18       9        X                  
         d      13       8                 X         
         f       6       5                 X         
         g       4       4                 X         
         h       2       2                 X         
--


++    Molecular structure info:
      -------------------------

                    ************************************************ 
                    **** Cartesian Coordinates / Bohr, Angstrom **** 
                    ************************************************ 

     Center  Label                x              y              z                     x              y              z
        1      NB               0.000000       0.000000       0.000000              0.000000       0.000000       0.000000
--


++    Operator info:
      --------------


  Net charge from external field:   -4.0000000000000000     
--


            Nuclear Potential Energy              0.00000000 au

                    Nuclear-External Field Potential Energy    -347.08986835 au
                    External Field Potential Energy               7.89851815 au 


            Total Nuclear Potential Energy           -347.08986835 au


      Basis set specifications :
      Symmetry species         a  
      Basis functions          170

 Sorry, Molden does not know how to handle
 functions with angular momentum larger than g
Note: The following floating-point exceptions are signalling: IEEE_UNDERFLOW_FLAG IEEE_DENORMAL
--- Stop Module: seward at Thu Jan  9 20:15:32 2025 /rc=_RC_ALL_IS_WELL_ ---
*** files: niobium_so_cf.GssOrb xmldump
    saved to directory /home4/s4752295/Internship/Initial_simulations/Point_charge_model/1_electron/active_space_9_non_rel/Nb/varying_bond_length
--- Module seward spent 8 seconds ---

*** symbolic link created: INPORB -> niobium_so_cf.GssOrb
--- Start Module: scf at Thu Jan  9 20:15:32 2025 ---

()()()()()()()()()()()()()()()()()()()()()()()()()()()()()()()()()()()()()()()()()()()()()()()()()()

                                                &SCF

                                   only a single process is used
                       available to each process: 4.1 GB of memory, 1 thread?
                                            pid: 516349
()()()()()()()()()()()()()()()()()()()()()()()()()()()()()()()()()()()()()()()()()()()()()()()()()()

++    Input section:
      --------------

      Header of the integral files:
      
       Integrals generated by seward 4.2.0  , Thu Jan  9 20:15:24 2025


      Cartesian coordinates in Angstrom:
      -----------------------------------------------------
      No.  Label        X            Y            Z        
      -----------------------------------------------------
       1   NB         0.00000000   0.00000000   0.00000000
      -----------------------------------------------------
      Nuclear repulsion energy = -347.08986835
--

++    Orbital specifications:
      -----------------------

      Symmetry species               1
                                     a
      Frozen orbitals                0
      Occupied orbitals             18
      Secondary orbitals           152
      Deleted orbitals               0
      Total number of orbitals     170
      Number of basis functions    170
--

      Molecular charge                           5.000

++    Optimization specifications:
      ----------------------------

      SCF Algorithm: Conventional
      Minimized density differences are used
      Number of density matrices in core                5
      Maximum number of NDDO SCF iterations            50
      Maximum number of HF SCF iterations             100
      Threshold for SCF energy change            0.10E-08
      Threshold for density matrix               0.10E-03
      Threshold for Fock matrix                  0.15E-03
      Threshold for linear dependence            0.10E-08
      Threshold at which DIIS is turned on       0.15E+00
      Threshold at which QNR/C2DIIS is turned on 0.75E-01
      Threshold for Norm(delta) (QNR/C2DIIS)     0.20E-04
      DIIS extrapolation of the SCF procedure
      All orbitals punched on: SCFORB
--

      Detected guessorb starting orbitals                                             


++ Convergence information
                                   SCF        iterations: Energy and convergence statistics

Iter     Tot. SCF        One-elec.       Two-elec.     Energy      Max Dij or  Max Fij      DNorm      TNorm      AccCon     Time
         Energy          Energy          Energy        Change      Delta Norm                                                in Sec.

 The total and one-electron energies are shifted by a value of      3000. a.u.

   1  -905.258947758 -1913.573515458  1355.404436053   0.00E+00    0.40E+00*   0.86E+00*    0.85E+01   0.49E+03   None         1.
   2  -907.652670431 -1806.395899076  1245.833096998  -0.24E+01*   0.18E+00*   0.51E+00*    0.31E+01   0.47E+03   EDIIS        1.
   3  -908.198934078 -1866.104696085  1304.995630360  -0.55E+00*   0.61E-01*   0.28E+00*    0.50E+00   0.48E+03   EDIIS        1.
   4  -908.400350223 -1837.370977447  1276.060495577  -0.20E+00*   0.28E-01*   0.13E+00*    0.15E+00   0.47E+03   EDIIS        1.
   5  -908.427791087 -1850.375098328  1289.037175594  -0.27E-01*   0.12E-01*   0.67E-01*    0.20E-01   0.47E+03   EDIIS        1.
   6  -908.438770628 -1843.899663730  1282.550761456  -0.11E-01*   0.41E-03*   0.18E-01*    0.39E-02   0.47E+03   c2DIIS       1.
   7  -908.440669496 -1845.708385354  1284.357584211  -0.19E-02*   0.23E-03*   0.16E-03*    0.69E-03   0.47E+03   QNRc2DIIS    1.
   8  -908.440669717 -1845.696295459  1284.345494096  -0.22E-06*   0.14E-03*   0.67E-04     0.66E-04   0.47E+03   QNRc2DIIS    1.
   9  -908.440669755 -1845.701497113  1284.350695711  -0.38E-07*   0.13E-04    0.14E-04     0.26E-04   0.47E+03   QNRc2DIIS    1.
  10  -908.440669756 -1845.700785476  1284.349984074  -0.11E-08*   0.33E-05    0.24E-05     0.41E-02   0.47E+03   QNRc2DIIS    1.
  11  -908.440669756 -1845.700771471  1284.349970068  -0.38E-10    0.47E-06    0.33E-06     0.34E-03   0.47E+03   QNRc2DIIS    1.

       Convergence after 11 Macro Iterations
--

 *****************************************************************************************************************************
 *                                                                                                                           *
 *                                             SCF/KS-DFT Program, Final results                                             *
 *                                                                                                                           *
 *                                                                                                                           *
 *                                                                                                                           *
 *                                                       Final Results                                                       *
 *                                                                                                                           *
 *****************************************************************************************************************************

::    Total SCF energy                              -3908.4406697557
      One-electron energy                           -4845.7007714707
      Two-electron energy                            1284.3499700685
      Nuclear repulsion energy                       -347.0898683535
      Kinetic energy (interpolated)                  4121.9749956486
      Virial theorem                                    0.9481961132
      Total spin, S(S+1)                                0.0000000000
      Total spin, S                                     0.0000000000
      Max non-diagonal density matrix element           0.0000003973
      Max non-diagonal Fock matrix element              0.0000000965


      All orbitals with orbital energies smaller than  E(LUMO)+0.5 are printed

++    Molecular orbitals:
      -------------------

      Title: SCF orbitals

      Molecular orbitals for symmetry species 1: a  

          Orbital            1         2         3         4         5         6         7         8         9        10    
          Energy         -699.0243  -98.1839  -87.2887  -87.2887  -87.2101  -14.8700  -11.4140  -11.4140  -10.8971   -5.5549
          Occ. No.          2.0000    2.0000    2.0000    2.0000    2.0000    2.0000    2.0000    2.0000    2.0000    2.0000

        1 NB     1s         1.0000    0.0001    0.0000   -0.0000   -0.0000   -0.0000    0.0000    0.0000    0.0000    0.0000
        2 NB     2s        -0.0001    0.9999    0.0000   -0.0000   -0.0134    0.0022    0.0000   -0.0000   -0.0010   -0.0000
        3 NB     3s         0.0000   -0.0023   -0.0000    0.0000    0.0006    0.9943   -0.0000   -0.0000   -0.0946   -0.0000
        4 NB     4s        -0.0000    0.0008   -0.0000   -0.0000   -0.0002    0.0314    0.0000   -0.0000   -0.0082   -0.0000
        5 NB     5s         0.0000   -0.0002    0.0000    0.0000    0.0000   -0.0060   -0.0000    0.0000    0.0014    0.0000
        6 NB     6s        -0.0000    0.0002   -0.0000   -0.0000   -0.0000    0.0070    0.0000   -0.0000   -0.0016   -0.0000
        7 NB     7s         0.0000   -0.0006    0.0000    0.0000    0.0001   -0.0148   -0.0000   -0.0000    0.0032    0.0000
        8 NB     8s        -0.0000    0.0006    0.0000   -0.0000   -0.0001    0.0087   -0.0000    0.0000   -0.0015   -0.0000
        9 NB     9s         0.0000   -0.0007   -0.0000    0.0000    0.0002   -0.0045    0.0000   -0.0000    0.0003   -0.0000
       10 NB    10s        -0.0000    0.0008   -0.0000   -0.0000   -0.0002   -0.0063    0.0000    0.0000    0.0022    0.0000
       11 NB     2px        0.0000    0.0000   -0.0000    1.0000    0.0000   -0.0000   -0.0000    0.0018    0.0000    0.0000
       12 NB     3px       -0.0000    0.0000    0.0000   -0.0021   -0.0000    0.0000   -0.0000    0.9920    0.0000    0.0000
       13 NB     4px        0.0000   -0.0000   -0.0000    0.0007    0.0000    0.0000   -0.0000    0.0366    0.0000   -0.0000
       14 NB     5px       -0.0000    0.0000    0.0000   -0.0002   -0.0000   -0.0000    0.0000   -0.0097   -0.0000    0.0000
       15 NB     6px        0.0000   -0.0000   -0.0000    0.0006    0.0000    0.0000   -0.0000    0.0201    0.0000    0.0000
       16 NB     7px       -0.0000    0.0000    0.0000   -0.0005   -0.0000   -0.0000    0.0000   -0.0124   -0.0000   -0.0000
       17 NB     8px        0.0000   -0.0000   -0.0000    0.0007    0.0000    0.0000   -0.0000    0.0073   -0.0000    0.0000
       18 NB     9px       -0.0000    0.0000    0.0000   -0.0006   -0.0000   -0.0000    0.0000   -0.0011    0.0000   -0.0000
       19 NB    10px        0.0000   -0.0000   -0.0000    0.0006    0.0000    0.0000    0.0000   -0.0058   -0.0000    0.0000
       20 NB     2py        0.0000    0.0000    1.0000    0.0000    0.0000    0.0000    0.0018    0.0000   -0.0000    0.0003
       21 NB     3py       -0.0000   -0.0000   -0.0021   -0.0000   -0.0000    0.0000    0.9920    0.0000    0.0000    0.0013
       22 NB     4py        0.0000    0.0000    0.0007    0.0000    0.0000   -0.0000    0.0366    0.0000    0.0000   -0.0003
       23 NB     5py       -0.0000   -0.0000   -0.0002   -0.0000   -0.0000    0.0000   -0.0097   -0.0000    0.0000    0.0000
       24 NB     6py        0.0000    0.0000    0.0006    0.0000    0.0000   -0.0000    0.0201    0.0000    0.0000    0.0000
       25 NB     7py       -0.0000   -0.0000   -0.0005   -0.0000   -0.0000    0.0000   -0.0124   -0.0000   -0.0000   -0.0001
       26 NB     8py        0.0000    0.0000    0.0007    0.0000    0.0000   -0.0000    0.0073    0.0000    0.0000    0.0003
       27 NB     9py       -0.0000   -0.0000   -0.0006   -0.0000   -0.0000    0.0000   -0.0011   -0.0000   -0.0000   -0.0004
       28 NB    10py        0.0000    0.0000    0.0006    0.0000    0.0000   -0.0000   -0.0058   -0.0000    0.0000    0.0006
       29 NB     2pz        0.0000    0.0134   -0.0000   -0.0000    0.9999   -0.0002   -0.0000   -0.0000    0.0029    0.0000
       30 NB     3pz       -0.0000    0.0007    0.0000    0.0000   -0.0029    0.0932   -0.0000   -0.0000    0.9921    0.0000
       31 NB     4pz        0.0000   -0.0002   -0.0000   -0.0000    0.0009    0.0000   -0.0000   -0.0000    0.0441    0.0000
       32 NB     5pz       -0.0000    0.0001    0.0000    0.0000   -0.0003   -0.0000    0.0000    0.0000   -0.0116   -0.0000
       33 NB     6pz        0.0000   -0.0002   -0.0000   -0.0000    0.0008    0.0002   -0.0000   -0.0000    0.0233   -0.0000
       34 NB     7pz       -0.0000    0.0002    0.0000    0.0000   -0.0007   -0.0003    0.0000    0.0000   -0.0138    0.0000
       35 NB     8pz        0.0000   -0.0002   -0.0000   -0.0000    0.0009    0.0006   -0.0000   -0.0000    0.0071    0.0000
       36 NB     9pz       -0.0000    0.0002    0.0000    0.0000   -0.0009   -0.0007    0.0000    0.0000    0.0005    0.0000
       37 NB    10pz        0.0000   -0.0003   -0.0000   -0.0000    0.0008    0.0011    0.0000    0.0000   -0.0091    0.0000
       38 NB     3d2-      -0.0000   -0.0000    0.0008    0.0000    0.0000   -0.0000    0.0625    0.0000    0.0000    0.8372
       39 NB     4d2-      -0.0000   -0.0000   -0.0001   -0.0000   -0.0000   -0.0000   -0.0011   -0.0000   -0.0000    0.0403
       40 NB     5d2-       0.0000    0.0000    0.0001    0.0000    0.0000    0.0000    0.0008    0.0000   -0.0000   -0.0339
       41 NB     6d2-      -0.0000   -0.0000   -0.0001   -0.0000   -0.0000   -0.0000   -0.0005   -0.0000    0.0000    0.0243
       42 NB     7d2-       0.0000    0.0000    0.0001    0.0000    0.0000    0.0000    0.0002    0.0000    0.0000   -0.0175
       43 NB     8d2-      -0.0000   -0.0000   -0.0002   -0.0000   -0.0000    0.0000    0.0010    0.0000   -0.0000    0.0132
       44 NB     9d2-       0.0000    0.0000    0.0002    0.0000    0.0000   -0.0000   -0.0019   -0.0000   -0.0000   -0.0066
       45 NB    10d2-      -0.0000    0.0000    0.0001    0.0000    0.0000   -0.0000   -0.0048   -0.0000   -0.0000    0.0011
       46 NB     3d1-       0.0000    0.0000    0.0018    0.0000    0.0000    0.0000    0.0988    0.0000    0.0000   -0.5417
       47 NB     4d1-       0.0000   -0.0000   -0.0003   -0.0000   -0.0000   -0.0000   -0.0015   -0.0000   -0.0000   -0.0258
       48 NB     5d1-       0.0000    0.0000    0.0003    0.0000    0.0000    0.0000    0.0011    0.0000    0.0000    0.0217
       49 NB     6d1-      -0.0000   -0.0000   -0.0003   -0.0000   -0.0000   -0.0000   -0.0006   -0.0000    0.0000   -0.0156
       50 NB     7d1-      -0.0000    0.0000    0.0003    0.0000    0.0000    0.0000    0.0002    0.0000    0.0000    0.0112
       51 NB     8d1-       0.0000   -0.0000   -0.0005   -0.0000   -0.0000   -0.0000    0.0015    0.0000    0.0000   -0.0087
       52 NB     9d1-      -0.0000    0.0000    0.0005    0.0000    0.0000   -0.0000   -0.0028   -0.0000   -0.0000    0.0046
       53 NB    10d1-       0.0000    0.0000    0.0006    0.0000    0.0000   -0.0000   -0.0068   -0.0000   -0.0000    0.0001
       54 NB     3d0       -0.0000   -0.0008    0.0000   -0.0000   -0.0002   -0.0329    0.0000   -0.0000   -0.0585   -0.0000
       55 NB     4d0        0.0000    0.0001    0.0000    0.0000    0.0000    0.0010   -0.0000   -0.0000    0.0011   -0.0000
       56 NB     5d0       -0.0000   -0.0002   -0.0000   -0.0000   -0.0000   -0.0008   -0.0000    0.0000   -0.0008    0.0000
       57 NB     6d0        0.0000    0.0001    0.0000    0.0000    0.0000    0.0005   -0.0000   -0.0000    0.0005   -0.0000
       58 NB     7d0       -0.0000   -0.0001   -0.0000   -0.0000   -0.0000   -0.0003    0.0000    0.0000   -0.0002    0.0000
       59 NB     8d0        0.0000    0.0002    0.0000    0.0000   -0.0000   -0.0005   -0.0000   -0.0000   -0.0011   -0.0000
       60 NB     9d0       -0.0000   -0.0002   -0.0000   -0.0000    0.0001    0.0013    0.0000    0.0000    0.0021   -0.0000
       61 NB    10d0       -0.0000   -0.0003   -0.0000   -0.0000    0.0003    0.0036    0.0000    0.0000    0.0055   -0.0000
       62 NB     3d1+      -0.0000   -0.0000   -0.0000    0.0018    0.0000   -0.0000   -0.0000    0.0988    0.0000   -0.0000
       63 NB     4d1+       0.0000    0.0000    0.0000   -0.0003   -0.0000   -0.0000    0.0000   -0.0015    0.0000   -0.0000
       64 NB     5d1+      -0.0000   -0.0000   -0.0000    0.0003    0.0000    0.0000   -0.0000    0.0011   -0.0000    0.0000
       65 NB     6d1+       0.0000    0.0000    0.0000   -0.0003   -0.0000   -0.0000    0.0000   -0.0006    0.0000   -0.0000
       66 NB     7d1+      -0.0000   -0.0000   -0.0000    0.0003    0.0000    0.0000   -0.0000    0.0002   -0.0000    0.0000
       67 NB     8d1+       0.0000    0.0000    0.0000   -0.0005   -0.0000   -0.0000   -0.0000    0.0015    0.0000   -0.0000
       68 NB     9d1+      -0.0000    0.0000   -0.0000    0.0005    0.0000    0.0000    0.0000   -0.0028   -0.0000    0.0000
       69 NB    10d1+      -0.0000    0.0000   -0.0000    0.0006    0.0000    0.0000    0.0000   -0.0068   -0.0000    0.0000
       70 NB     3d2+      -0.0000   -0.0000    0.0000   -0.0008    0.0000   -0.0000    0.0000   -0.0625    0.0000   -0.0000
       71 NB     4d2+       0.0000    0.0000   -0.0000    0.0001   -0.0000    0.0000   -0.0000    0.0011   -0.0000   -0.0000
       72 NB     5d2+      -0.0000   -0.0000    0.0000   -0.0001    0.0000   -0.0000    0.0000   -0.0008    0.0000    0.0000
       73 NB     6d2+       0.0000    0.0000   -0.0000    0.0001   -0.0000    0.0000   -0.0000    0.0005   -0.0000   -0.0000
       74 NB     7d2+      -0.0000   -0.0000    0.0000   -0.0001    0.0000   -0.0000    0.0000   -0.0002    0.0000    0.0000
       75 NB     8d2+       0.0000    0.0000   -0.0000    0.0002   -0.0000    0.0000    0.0000   -0.0010   -0.0000   -0.0000
       76 NB     9d2+      -0.0000   -0.0000    0.0000   -0.0002    0.0000    0.0000   -0.0000    0.0019    0.0000    0.0000
       77 NB    10d2+      -0.0000   -0.0000    0.0000   -0.0001    0.0000    0.0000   -0.0000    0.0048   -0.0000   -0.0000
       78 NB     4f3-      -0.0000    0.0000   -0.0000   -0.0000    0.0000    0.0000   -0.0000   -0.0000   -0.0000    0.0000
       79 NB     5f3-       0.0000    0.0000   -0.0000   -0.0000    0.0000    0.0000   -0.0000   -0.0000   -0.0000    0.0000
       80 NB     6f3-      -0.0000   -0.0000    0.0000    0.0000   -0.0000   -0.0000    0.0000    0.0000    0.0000   -0.0000
       81 NB     7f3-       0.0000    0.0000   -0.0000   -0.0000   -0.0000    0.0000   -0.0000   -0.0000    0.0000    0.0000
       82 NB     8f3-      -0.0000   -0.0000   -0.0000   -0.0000   -0.0000    0.0000   -0.0000   -0.0000    0.0000    0.0000
       83 NB     4f2-      -0.0000   -0.0000   -0.0000   -0.0000   -0.0000   -0.0000   -0.0018   -0.0000   -0.0000    0.0050
       84 NB     5f2-      -0.0000   -0.0000   -0.0000   -0.0000   -0.0000   -0.0000   -0.0016   -0.0000   -0.0000    0.0042
       85 NB     6f2-       0.0000   -0.0000    0.0000    0.0000    0.0000    0.0000    0.0011    0.0000    0.0000   -0.0026
       86 NB     7f2-      -0.0000    0.0000   -0.0000   -0.0000   -0.0000   -0.0000   -0.0018   -0.0000   -0.0000    0.0032
       87 NB     8f2-      -0.0000   -0.0000   -0.0000   -0.0000   -0.0000   -0.0000   -0.0030   -0.0000   -0.0000    0.0061
       88 NB     4f1-       0.0000    0.0000   -0.0000   -0.0000   -0.0000   -0.0000   -0.0013   -0.0000   -0.0000   -0.0022
       89 NB     5f1-       0.0000    0.0000   -0.0000   -0.0000   -0.0000   -0.0000   -0.0013   -0.0000   -0.0000   -0.0019
       90 NB     6f1-      -0.0000    0.0000    0.0000    0.0000    0.0000    0.0000    0.0010    0.0000    0.0000    0.0012
       91 NB     7f1-       0.0000   -0.0000   -0.0000   -0.0000   -0.0000   -0.0000   -0.0013   -0.0000   -0.0000   -0.0014
       92 NB     8f1-       0.0000   -0.0000   -0.0000   -0.0000   -0.0000   -0.0000   -0.0019   -0.0000   -0.0000   -0.0025
       93 NB     4f0       -0.0000   -0.0000    0.0000    0.0000   -0.0000   -0.0044   -0.0000    0.0000   -0.0016    0.0000
       94 NB     5f0       -0.0000   -0.0000    0.0000    0.0000   -0.0000   -0.0041   -0.0000    0.0000   -0.0015    0.0000
       95 NB     6f0       -0.0000    0.0000   -0.0000   -0.0000    0.0000    0.0032    0.0000   -0.0000    0.0011   -0.0000
       96 NB     7f0        0.0000   -0.0000    0.0000    0.0000   -0.0000   -0.0046    0.0000    0.0000   -0.0015    0.0000
       97 NB     8f0        0.0000   -0.0001    0.0000    0.0000   -0.0000   -0.0069    0.0000    0.0000   -0.0021    0.0000
       98 NB     4f1+      -0.0000   -0.0000    0.0000   -0.0000   -0.0000   -0.0000    0.0000   -0.0013   -0.0000   -0.0000
       99 NB     5f1+      -0.0000   -0.0000    0.0000   -0.0000   -0.0000   -0.0000    0.0000   -0.0013   -0.0000   -0.0000
      100 NB     6f1+      -0.0000    0.0000   -0.0000    0.0000    0.0000    0.0000   -0.0000    0.0010    0.0000    0.0000
      101 NB     7f1+       0.0000   -0.0000    0.0000   -0.0000   -0.0000   -0.0000    0.0000   -0.0013   -0.0000   -0.0000
      102 NB     8f1+       0.0000   -0.0000    0.0000   -0.0000   -0.0000   -0.0000    0.0000   -0.0019   -0.0000   -0.0000
      103 NB     4f2+       0.0000    0.0000   -0.0000    0.0000   -0.0000    0.0000   -0.0000    0.0018   -0.0000   -0.0000
      104 NB     5f2+       0.0000    0.0000   -0.0000    0.0000   -0.0000    0.0000   -0.0000    0.0016   -0.0000   -0.0000
      105 NB     6f2+       0.0000   -0.0000    0.0000   -0.0000    0.0000   -0.0000    0.0000   -0.0011    0.0000    0.0000
      106 NB     7f2+      -0.0000    0.0000   -0.0000    0.0000   -0.0000    0.0000   -0.0000    0.0018   -0.0000   -0.0000
      107 NB     8f2+      -0.0000    0.0000   -0.0000    0.0000   -0.0000    0.0000   -0.0000    0.0030   -0.0000   -0.0000
      108 NB     4f3+      -0.0000   -0.0000   -0.0000   -0.0000    0.0000   -0.0028   -0.0000   -0.0000    0.0023   -0.0000
      109 NB     5f3+      -0.0000   -0.0000   -0.0000   -0.0000    0.0000   -0.0026   -0.0000   -0.0000    0.0020   -0.0000
      110 NB     6f3+      -0.0000    0.0000    0.0000   -0.0000   -0.0000    0.0020    0.0000    0.0000   -0.0014    0.0000
      111 NB     7f3+       0.0000   -0.0000   -0.0000   -0.0000    0.0000   -0.0029   -0.0000   -0.0000    0.0022   -0.0000
      112 NB     8f3+       0.0000   -0.0001   -0.0000   -0.0000    0.0000   -0.0043    0.0000   -0.0000    0.0037   -0.0000
      113 NB     5g4-      -0.0000   -0.0000   -0.0000   -0.0000   -0.0000   -0.0000   -0.0013   -0.0000   -0.0000   -0.0003
      114 NB     6g4-       0.0000    0.0000    0.0000    0.0000    0.0000    0.0000    0.0017    0.0000    0.0000    0.0003
      115 NB     7g4-      -0.0000   -0.0000   -0.0000   -0.0000   -0.0000   -0.0000   -0.0028   -0.0000   -0.0000   -0.0005
      116 NB     8g4-       0.0000    0.0000    0.0001    0.0000    0.0000    0.0000    0.0042    0.0000    0.0000    0.0007
      117 NB     5g3-      -0.0000   -0.0000    0.0000    0.0000   -0.0000   -0.0000    0.0000    0.0000    0.0000   -0.0000
      118 NB     6g3-      -0.0000    0.0000   -0.0000   -0.0000   -0.0000   -0.0000   -0.0000   -0.0000    0.0000    0.0000
      119 NB     7g3-       0.0000   -0.0000    0.0000    0.0000    0.0000    0.0000    0.0000    0.0000    0.0000   -0.0000
      120 NB     8g3-      -0.0000   -0.0000   -0.0000   -0.0000   -0.0000   -0.0000   -0.0000   -0.0000   -0.0000    0.0000
      121 NB     5g2-       0.0000    0.0000    0.0000    0.0000    0.0000   -0.0000    0.0001    0.0000   -0.0000   -0.0004
      122 NB     6g2-      -0.0000   -0.0000   -0.0000   -0.0000   -0.0000    0.0000   -0.0002   -0.0000   -0.0000    0.0004
      123 NB     7g2-       0.0000    0.0000    0.0000    0.0000    0.0000   -0.0000    0.0003    0.0000    0.0000   -0.0005
      124 NB     8g2-      -0.0000   -0.0000   -0.0000   -0.0000   -0.0000    0.0000   -0.0005   -0.0000   -0.0000    0.0008
      125 NB     5g1-      -0.0000   -0.0000   -0.0000   -0.0000   -0.0000   -0.0000   -0.0016   -0.0000   -0.0000    0.0012
      126 NB     6g1-       0.0000    0.0000    0.0000    0.0000    0.0000    0.0000    0.0021    0.0000    0.0000   -0.0014
      127 NB     7g1-      -0.0000   -0.0000   -0.0000   -0.0000   -0.0000   -0.0000   -0.0035   -0.0000   -0.0000    0.0020
      128 NB     8g1-       0.0000    0.0000    0.0001    0.0000    0.0000    0.0000    0.0052    0.0000    0.0000   -0.0029
      129 NB     5g0        0.0000   -0.0000    0.0000    0.0000   -0.0000   -0.0003   -0.0000    0.0000   -0.0027   -0.0000
      130 NB     6g0       -0.0000    0.0000   -0.0000   -0.0000    0.0000    0.0004   -0.0000   -0.0000    0.0036   -0.0000
      131 NB     7g0        0.0000   -0.0000    0.0000    0.0000   -0.0001   -0.0006    0.0000    0.0000   -0.0061    0.0000
      132 NB     8g0       -0.0000    0.0000   -0.0000   -0.0000    0.0001    0.0009   -0.0000   -0.0000    0.0090    0.0000
      133 NB     5g1+      -0.0000    0.0000    0.0000   -0.0000   -0.0000    0.0000    0.0000   -0.0016   -0.0000    0.0000
      134 NB     6g1+       0.0000   -0.0000   -0.0000    0.0000    0.0000   -0.0000   -0.0000    0.0021    0.0000   -0.0000
      135 NB     7g1+      -0.0000    0.0000    0.0000   -0.0000   -0.0000    0.0000    0.0000   -0.0035   -0.0000    0.0000
      136 NB     8g1+       0.0000   -0.0000   -0.0000    0.0001    0.0000   -0.0000   -0.0000    0.0052    0.0000   -0.0000
      137 NB     5g2+       0.0000   -0.0000    0.0000   -0.0000    0.0000   -0.0000    0.0000   -0.0001    0.0000    0.0000
      138 NB     6g2+      -0.0000    0.0000   -0.0000    0.0000   -0.0000    0.0000   -0.0000    0.0002   -0.0000   -0.0000
      139 NB     7g2+       0.0000   -0.0000    0.0000   -0.0000    0.0000   -0.0000    0.0000   -0.0003    0.0000    0.0000
      140 NB     8g2+      -0.0000    0.0000   -0.0000    0.0000   -0.0000    0.0000   -0.0000    0.0005   -0.0000   -0.0000
      141 NB     5g3+      -0.0000    0.0000    0.0000    0.0000   -0.0000    0.0012    0.0000    0.0000   -0.0018    0.0000
      142 NB     6g3+       0.0000   -0.0000   -0.0000   -0.0000    0.0000   -0.0018   -0.0000   -0.0000    0.0024   -0.0000
      143 NB     7g3+      -0.0000    0.0001    0.0000    0.0000   -0.0001    0.0032    0.0000    0.0000   -0.0040   -0.0000
      144 NB     8g3+       0.0000   -0.0001   -0.0000   -0.0000    0.0001   -0.0048   -0.0000   -0.0000    0.0060    0.0000
      145 NB     5g4+      -0.0000    0.0000    0.0000   -0.0000   -0.0000    0.0000    0.0000   -0.0013   -0.0000   -0.0000
      146 NB     6g4+       0.0000   -0.0000   -0.0000    0.0000    0.0000   -0.0000   -0.0000    0.0017    0.0000    0.0000
      147 NB     7g4+      -0.0000    0.0000    0.0000   -0.0000   -0.0000    0.0000    0.0000   -0.0028   -0.0000   -0.0000
      148 NB     8g4+       0.0000   -0.0000   -0.0000    0.0001    0.0000   -0.0000   -0.0000    0.0042    0.0000    0.0000
      149 NB     6h5-       0.0000   -0.0000    0.0000    0.0000   -0.0000    0.0000    0.0001    0.0000    0.0000   -0.0007
      150 NB     7h5-      -0.0000    0.0000   -0.0000   -0.0000    0.0000   -0.0000   -0.0001   -0.0000    0.0000    0.0008
      151 NB     6h4-       0.0000    0.0000    0.0000    0.0000    0.0000    0.0000    0.0005    0.0000    0.0000    0.0003
      152 NB     7h4-      -0.0000   -0.0000   -0.0000   -0.0000   -0.0000   -0.0000   -0.0005   -0.0000   -0.0000   -0.0004
      153 NB     6h3-      -0.0000   -0.0000   -0.0000    0.0000   -0.0000   -0.0000   -0.0000   -0.0000    0.0000   -0.0000
      154 NB     7h3-       0.0000    0.0000    0.0000   -0.0000    0.0000    0.0000    0.0000    0.0000    0.0000    0.0000
      155 NB     6h2-       0.0000    0.0000    0.0000    0.0000    0.0000    0.0000    0.0001    0.0000    0.0000   -0.0006
      156 NB     7h2-      -0.0000   -0.0000   -0.0000   -0.0000   -0.0000   -0.0000   -0.0002   -0.0000   -0.0000    0.0006
      157 NB     6h1-       0.0000   -0.0000    0.0000    0.0000   -0.0000   -0.0000    0.0001    0.0000   -0.0000    0.0006
      158 NB     7h1-      -0.0000    0.0000   -0.0000   -0.0000   -0.0000    0.0000   -0.0001   -0.0000    0.0000   -0.0007
      159 NB     6h0        0.0000   -0.0000   -0.0000   -0.0000   -0.0000   -0.0001    0.0000   -0.0000   -0.0003   -0.0000
      160 NB     7h0       -0.0000    0.0000   -0.0000    0.0000    0.0000    0.0002   -0.0000    0.0000    0.0003   -0.0000
      161 NB     6h1+       0.0000   -0.0000   -0.0000    0.0000    0.0000   -0.0000   -0.0000    0.0001    0.0000    0.0000
      162 NB     7h1+      -0.0000    0.0000    0.0000   -0.0000   -0.0000    0.0000    0.0000   -0.0001   -0.0000   -0.0000
      163 NB     6h2+       0.0000   -0.0000    0.0000   -0.0000   -0.0000   -0.0000    0.0000   -0.0001   -0.0000    0.0000
      164 NB     7h2+      -0.0000    0.0000   -0.0000    0.0000    0.0000    0.0000   -0.0000    0.0002    0.0000   -0.0000
      165 NB     6h3+       0.0000   -0.0000    0.0000   -0.0000    0.0000   -0.0002    0.0000   -0.0000    0.0005    0.0000
      166 NB     7h3+      -0.0000    0.0000    0.0000    0.0000   -0.0000    0.0003   -0.0000    0.0000   -0.0006   -0.0000
      167 NB     6h4+       0.0000   -0.0000   -0.0000    0.0000    0.0000   -0.0000   -0.0000    0.0005    0.0000    0.0000
      168 NB     7h4+      -0.0000    0.0000    0.0000   -0.0000   -0.0000    0.0000    0.0000   -0.0005   -0.0000   -0.0000
      169 NB     6h5+       0.0000   -0.0000    0.0000   -0.0000    0.0000   -0.0000    0.0000   -0.0001    0.0000    0.0000
      170 NB     7h5+      -0.0000    0.0000   -0.0000    0.0000   -0.0000    0.0000   -0.0000    0.0001   -0.0000   -0.0000

          Orbital           11        12        13        14        15        16        17        18        19        20    
          Energy           -5.5549   -4.9694   -4.8655   -4.8655   -1.9278   -1.0761   -1.0761   -1.0193   -0.1457   -0.0852
          Occ. No.          2.0000    2.0000    2.0000    2.0000    2.0000    2.0000    2.0000    2.0000    0.0000    0.0000

        1 NB     1s         0.0000    0.0000    0.0000   -0.0000    0.0000   -0.0000   -0.0000   -0.0000   -0.0000   -0.0000
        2 NB     2s         0.0000    0.0008   -0.0000   -0.0000   -0.0007   -0.0000    0.0000    0.0002    0.0001    0.0000
        3 NB     3s         0.0000    0.0267    0.0000    0.0000   -0.0273    0.0000    0.0000    0.0042    0.0048    0.0000
        4 NB     4s         0.0000    0.0107    0.0000   -0.0000    0.9714   -0.0000   -0.0000   -0.0612   -0.0729   -0.0000
        5 NB     5s        -0.0000   -0.0011    0.0000    0.0000    0.1298    0.0000   -0.0000   -0.0336    0.9175    0.0000
        6 NB     6s         0.0000    0.0012   -0.0000   -0.0000   -0.1134   -0.0000    0.0000    0.0233    0.3848    0.0000
        7 NB     7s        -0.0000   -0.0020    0.0000    0.0000    0.1400    0.0000   -0.0000   -0.0209   -0.0362    0.0000
        8 NB     8s         0.0000    0.0005    0.0000   -0.0000   -0.0179    0.0000   -0.0000   -0.0012   -0.0179    0.0000
        9 NB     9s         0.0000    0.0005    0.0000    0.0000    0.0016    0.0000    0.0000   -0.0001   -0.0072    0.0000
       10 NB    10s        -0.0000   -0.0019   -0.0000   -0.0000    0.0014   -0.0000   -0.0000   -0.0004   -0.0009    0.0000
       11 NB     2px       -0.0003    0.0000    0.0000   -0.0021   -0.0000    0.0000   -0.0006   -0.0000   -0.0000   -0.0000
       12 NB     3px       -0.0013    0.0000    0.0000   -0.1144   -0.0000    0.0000   -0.0315   -0.0000    0.0000   -0.0000
       13 NB     4px        0.0003    0.0000    0.0000   -0.0311    0.0000   -0.0000    0.9596    0.0000    0.0000    0.0000
       14 NB     5px       -0.0000   -0.0000   -0.0000    0.0062   -0.0000   -0.0000    0.1961    0.0000    0.0000   -0.0000
       15 NB     6px       -0.0000    0.0000    0.0000   -0.0105   -0.0000    0.0000   -0.1873   -0.0000    0.0000   -0.0000
       16 NB     7px        0.0001   -0.0000   -0.0000    0.0044    0.0000   -0.0000    0.0159    0.0000    0.0000   -0.0000
       17 NB     8px       -0.0003   -0.0000    0.0000   -0.0001   -0.0000   -0.0000    0.0054    0.0000    0.0000   -0.0000
       18 NB     9px        0.0004    0.0000    0.0000   -0.0028    0.0000   -0.0000    0.0114    0.0000    0.0000   -0.0000
       19 NB    10px       -0.0006   -0.0000   -0.0000    0.0060   -0.0000   -0.0000    0.0036    0.0000    0.0000   -0.0000
       20 NB     2py        0.0000    0.0000   -0.0021   -0.0000    0.0000   -0.0006   -0.0000    0.0000   -0.0000    0.0001
       21 NB     3py        0.0000    0.0000   -0.1144   -0.0000    0.0000   -0.0315   -0.0000   -0.0000    0.0000    0.0047
       22 NB     4py       -0.0000   -0.0000   -0.0311   -0.0000    0.0000    0.9596    0.0000    0.0000   -0.0000   -0.0736
       23 NB     5py        0.0000   -0.0000    0.0062    0.0000   -0.0000    0.1961    0.0000    0.0000   -0.0000    0.7783
       24 NB     6py        0.0000   -0.0000   -0.0105   -0.0000    0.0000   -0.1873   -0.0000   -0.0000   -0.0000    0.4672
       25 NB     7py       -0.0000    0.0000    0.0044    0.0000   -0.0000    0.0159    0.0000   -0.0000   -0.0000    0.3787
       26 NB     8py        0.0000   -0.0000   -0.0001   -0.0000    0.0000    0.0054    0.0000   -0.0000   -0.0000    0.1513
       27 NB     9py       -0.0000    0.0000   -0.0028   -0.0000   -0.0000    0.0114    0.0000    0.0000   -0.0000    0.0528
       28 NB    10py        0.0000   -0.0000    0.0060    0.0000    0.0000    0.0036    0.0000    0.0000    0.0000    0.0068
       29 NB     2pz       -0.0000    0.0004    0.0000   -0.0000    0.0001    0.0000    0.0000   -0.0007   -0.0000    0.0000
       30 NB     3pz       -0.0000    0.0598    0.0000    0.0000    0.0008    0.0000    0.0000   -0.0353   -0.0006    0.0000
       31 NB     4pz       -0.0000    0.0177    0.0000    0.0000    0.0733   -0.0000   -0.0000    0.9490    0.0075   -0.0000
       32 NB     5pz        0.0000   -0.0035   -0.0000   -0.0000   -0.0012   -0.0000   -0.0000    0.2227    0.0520    0.0000
       33 NB     6pz       -0.0000    0.0056   -0.0000    0.0000    0.0010    0.0000    0.0000   -0.2046    0.0104    0.0000
       34 NB     7pz        0.0000   -0.0019    0.0000   -0.0000   -0.0002    0.0000   -0.0000    0.0140    0.0097    0.0000
       35 NB     8pz       -0.0000   -0.0009    0.0000    0.0000    0.0001   -0.0000   -0.0000    0.0061    0.0029    0.0000
       36 NB     9pz       -0.0000    0.0027    0.0000   -0.0000    0.0000   -0.0000   -0.0000    0.0124    0.0010    0.0000
       37 NB    10pz        0.0000   -0.0049   -0.0000   -0.0000   -0.0004   -0.0000   -0.0000    0.0045    0.0002    0.0000
       38 NB     3d2-       0.0000   -0.0000    0.5365    0.0000   -0.0000    0.0103    0.0000   -0.0000   -0.0000   -0.0008
       39 NB     4d2-       0.0000   -0.0000    0.0358    0.0000   -0.0000    0.0256    0.0000   -0.0000   -0.0000   -0.0198
       40 NB     5d2-      -0.0000    0.0000   -0.0289   -0.0000    0.0000   -0.0109   -0.0000   -0.0000   -0.0000   -0.0106
       41 NB     6d2-       0.0000   -0.0000    0.0198    0.0000   -0.0000    0.0040    0.0000    0.0000   -0.0000   -0.0078
       42 NB     7d2-      -0.0000    0.0000   -0.0134   -0.0000    0.0000   -0.0018   -0.0000    0.0000    0.0000   -0.0018
       43 NB     8d2-       0.0000   -0.0000    0.0081    0.0000    0.0000    0.0010    0.0000    0.0000    0.0000    0.0005
       44 NB     9d2-      -0.0000    0.0000   -0.0024   -0.0000   -0.0000   -0.0010   -0.0000   -0.0000    0.0000    0.0007
       45 NB    10d2-       0.0000   -0.0000    0.0070    0.0000    0.0000    0.0010    0.0000   -0.0000   -0.0000   -0.0003
       46 NB     3d1-      -0.0000   -0.0000    0.8294    0.0000   -0.0000    0.0147    0.0000    0.0000   -0.0000   -0.0010
       47 NB     4d1-      -0.0000   -0.0000    0.0545    0.0000   -0.0000    0.0498    0.0000   -0.0000   -0.0000   -0.0278
       48 NB     5d1-       0.0000    0.0000   -0.0441   -0.0000    0.0000   -0.0213   -0.0000   -0.0000   -0.0000   -0.0044
       49 NB     6d1-      -0.0000   -0.0000    0.0302    0.0000    0.0000    0.0076    0.0000    0.0000   -0.0000   -0.0019
       50 NB     7d1-       0.0000    0.0000   -0.0206   -0.0000   -0.0000   -0.0030   -0.0000   -0.0000   -0.0000    0.0008
       51 NB     8d1-      -0.0000   -0.0000    0.0127    0.0000    0.0000    0.0016    0.0000   -0.0000    0.0000    0.0002
       52 NB     9d1-       0.0000    0.0000   -0.0042   -0.0000   -0.0000   -0.0017   -0.0000   -0.0000   -0.0000    0.0004
       53 NB    10d1-       0.0000   -0.0000    0.0094    0.0000   -0.0000    0.0014    0.0000    0.0000   -0.0000   -0.0003
       54 NB     3d0        0.0000    0.9931    0.0000    0.0000   -0.0087    0.0000    0.0000   -0.0114    0.0004    0.0000
       55 NB     4d0        0.0000    0.0624    0.0000    0.0000   -0.0156    0.0000   -0.0000   -0.0114    0.0112    0.0000
       56 NB     5d0       -0.0000   -0.0508   -0.0000   -0.0000    0.0101   -0.0000    0.0000    0.0045   -0.0011    0.0000
       57 NB     6d0        0.0000    0.0351    0.0000    0.0000   -0.0053   -0.0000   -0.0000   -0.0019    0.0003    0.0000
       58 NB     7d0       -0.0000   -0.0242   -0.0000   -0.0000    0.0028   -0.0000    0.0000    0.0012   -0.0005    0.0000
       59 NB     8d0        0.0000    0.0156    0.0000    0.0000   -0.0016    0.0000    0.0000   -0.0009    0.0002   -0.0000
       60 NB     9d0       -0.0000   -0.0057   -0.0000   -0.0000    0.0012   -0.0000   -0.0000    0.0008   -0.0003   -0.0000
       61 NB    10d0        0.0000    0.0092    0.0000    0.0000   -0.0006   -0.0000    0.0000   -0.0011    0.0001    0.0000
       62 NB     3d1+       0.5417   -0.0000   -0.0000    0.8294    0.0000   -0.0000    0.0147    0.0000   -0.0000    0.0000
       63 NB     4d1+       0.0258   -0.0000   -0.0000    0.0545   -0.0000   -0.0000    0.0498    0.0000    0.0000    0.0000
       64 NB     5d1+      -0.0217    0.0000    0.0000   -0.0441    0.0000    0.0000   -0.0213   -0.0000    0.0000    0.0000
       65 NB     6d1+       0.0156   -0.0000   -0.0000    0.0302   -0.0000   -0.0000    0.0076    0.0000    0.0000    0.0000
       66 NB     7d1+      -0.0112    0.0000    0.0000   -0.0206    0.0000    0.0000   -0.0030   -0.0000   -0.0000   -0.0000
       67 NB     8d1+       0.0087   -0.0000   -0.0000    0.0127   -0.0000   -0.0000    0.0016    0.0000    0.0000   -0.0000
       68 NB     9d1+      -0.0046    0.0000    0.0000   -0.0042    0.0000    0.0000   -0.0017   -0.0000   -0.0000   -0.0000
       69 NB    10d1+      -0.0001   -0.0000   -0.0000    0.0094   -0.0000   -0.0000    0.0014    0.0000    0.0000    0.0000
       70 NB     3d2+       0.8372    0.0000    0.0000   -0.5365   -0.0000    0.0000   -0.0103    0.0000    0.0000   -0.0000
       71 NB     4d2+       0.0403    0.0000    0.0000   -0.0358   -0.0000    0.0000   -0.0256    0.0000    0.0000   -0.0000
       72 NB     5d2+      -0.0339    0.0000   -0.0000    0.0289    0.0000   -0.0000    0.0109   -0.0000   -0.0000   -0.0000
       73 NB     6d2+       0.0243   -0.0000    0.0000   -0.0198   -0.0000    0.0000   -0.0040    0.0000    0.0000   -0.0000
       74 NB     7d2+      -0.0175    0.0000   -0.0000    0.0134    0.0000   -0.0000    0.0018   -0.0000   -0.0000   -0.0000
       75 NB     8d2+       0.0132   -0.0000    0.0000   -0.0081   -0.0000    0.0000   -0.0010    0.0000    0.0000    0.0000
       76 NB     9d2+      -0.0066    0.0000   -0.0000    0.0024    0.0000   -0.0000    0.0010   -0.0000   -0.0000    0.0000
       77 NB    10d2+       0.0011    0.0000    0.0000   -0.0070   -0.0000    0.0000   -0.0010    0.0000    0.0000   -0.0000
       78 NB     4f3-       0.0000   -0.0000    0.0000    0.0000   -0.0000   -0.0000   -0.0000    0.0000    0.0000    0.0000
       79 NB     5f3-       0.0000    0.0000    0.0000    0.0000    0.0000   -0.0000   -0.0000    0.0000   -0.0000    0.0000
       80 NB     6f3-      -0.0000    0.0000   -0.0000   -0.0000   -0.0000    0.0000    0.0000   -0.0000   -0.0000    0.0000
       81 NB     7f3-       0.0000    0.0000    0.0000   -0.0000   -0.0000   -0.0000   -0.0000   -0.0000   -0.0000    0.0000
       82 NB     8f3-       0.0000    0.0000    0.0000   -0.0000    0.0000    0.0000    0.0000   -0.0000    0.0000   -0.0000
       83 NB     4f2-       0.0000   -0.0000    0.0110    0.0000   -0.0000   -0.0003   -0.0000   -0.0000   -0.0000   -0.0002
       84 NB     5f2-       0.0000   -0.0000    0.0090    0.0000   -0.0000   -0.0003   -0.0000    0.0000   -0.0000    0.0003
       85 NB     6f2-      -0.0000    0.0000   -0.0048   -0.0000    0.0000    0.0006    0.0000    0.0000    0.0000    0.0003
       86 NB     7f2-       0.0000   -0.0000    0.0064    0.0000   -0.0000   -0.0008   -0.0000   -0.0000    0.0000    0.0005
       87 NB     8f2-       0.0000   -0.0000    0.0149    0.0000   -0.0000    0.0024    0.0000    0.0000   -0.0000   -0.0007
       88 NB     4f1-      -0.0000    0.0000    0.0027    0.0000   -0.0000   -0.0039   -0.0000   -0.0000   -0.0000    0.0001
       89 NB     5f1-      -0.0000    0.0000    0.0022    0.0000    0.0000   -0.0019   -0.0000   -0.0000   -0.0000    0.0014
       90 NB     6f1-       0.0000   -0.0000   -0.0013   -0.0000    0.0000    0.0008    0.0000    0.0000    0.0000    0.0009
       91 NB     7f1-      -0.0000    0.0000    0.0015    0.0000   -0.0000   -0.0006   -0.0000   -0.0000    0.0000    0.0009
       92 NB     8f1-      -0.0000    0.0000    0.0030    0.0000    0.0000    0.0007    0.0000    0.0000   -0.0000   -0.0006
       93 NB     4f0       -0.0000   -0.0038   -0.0000   -0.0000   -0.0094    0.0000    0.0000   -0.0051    0.0025    0.0000
       94 NB     5f0       -0.0000   -0.0030   -0.0000   -0.0000   -0.0061   -0.0000    0.0000   -0.0023    0.0008    0.0000
       95 NB     6f0        0.0000    0.0014    0.0000    0.0000    0.0039   -0.0000   -0.0000    0.0009   -0.0010    0.0000
       96 NB     7f0       -0.0000   -0.0024   -0.0000   -0.0000   -0.0027    0.0000    0.0000   -0.0009    0.0011    0.0000
       97 NB     8f0       -0.0000   -0.0064   -0.0000   -0.0000    0.0014   -0.0000   -0.0000    0.0009   -0.0007   -0.0000
       98 NB     4f1+       0.0022    0.0000   -0.0000    0.0027   -0.0000    0.0000   -0.0039   -0.0000    0.0000   -0.0000
       99 NB     5f1+       0.0019    0.0000   -0.0000    0.0022   -0.0000    0.0000   -0.0019   -0.0000    0.0000   -0.0000
      100 NB     6f1+      -0.0012   -0.0000    0.0000   -0.0013    0.0000   -0.0000    0.0008    0.0000    0.0000   -0.0000
      101 NB     7f1+       0.0014    0.0000   -0.0000    0.0015   -0.0000    0.0000   -0.0006   -0.0000    0.0000   -0.0000
      102 NB     8f1+       0.0025    0.0000   -0.0000    0.0030    0.0000   -0.0000    0.0007   -0.0000   -0.0000    0.0000
      103 NB     4f2+       0.0050    0.0000    0.0000   -0.0110    0.0000   -0.0000    0.0003   -0.0000   -0.0000   -0.0000
      104 NB     5f2+       0.0042    0.0000    0.0000   -0.0090    0.0000   -0.0000    0.0003   -0.0000    0.0000    0.0000
      105 NB     6f2+      -0.0026   -0.0000   -0.0000    0.0048   -0.0000    0.0000   -0.0006    0.0000    0.0000    0.0000
      106 NB     7f2+       0.0032    0.0000    0.0000   -0.0064    0.0000   -0.0000    0.0008   -0.0000   -0.0000    0.0000
      107 NB     8f2+       0.0061    0.0000    0.0000   -0.0149   -0.0000    0.0000   -0.0024    0.0000    0.0000   -0.0000
      108 NB     4f3+       0.0000    0.0039    0.0000   -0.0000   -0.0061    0.0000   -0.0000    0.0013    0.0017   -0.0000
      109 NB     5f3+       0.0000    0.0032    0.0000   -0.0000   -0.0039    0.0000   -0.0000    0.0008    0.0005   -0.0000
      110 NB     6f3+      -0.0000   -0.0018   -0.0000    0.0000    0.0025   -0.0000    0.0000   -0.0007   -0.0007   -0.0000
      111 NB     7f3+       0.0000    0.0024    0.0000   -0.0000   -0.0017    0.0000   -0.0000    0.0008    0.0007   -0.0000
      112 NB     8f3+       0.0000    0.0052    0.0000    0.0000    0.0007   -0.0000    0.0000   -0.0019   -0.0005    0.0000
      113 NB     5g4-      -0.0000   -0.0000    0.0017    0.0000   -0.0000   -0.0022   -0.0000   -0.0000   -0.0000    0.0004
      114 NB     6g4-       0.0000    0.0000   -0.0020   -0.0000    0.0000    0.0011    0.0000    0.0000    0.0000   -0.0000
      115 NB     7g4-      -0.0000   -0.0000    0.0031    0.0000   -0.0000   -0.0006   -0.0000   -0.0000   -0.0000    0.0002
      116 NB     8g4-       0.0000    0.0000   -0.0046   -0.0000    0.0000    0.0001    0.0000    0.0000    0.0000   -0.0000
      117 NB     5g3-      -0.0000   -0.0000   -0.0000   -0.0000   -0.0000    0.0000    0.0000    0.0000    0.0000   -0.0000
      118 NB     6g3-      -0.0000   -0.0000    0.0000    0.0000    0.0000   -0.0000   -0.0000   -0.0000    0.0000   -0.0000
      119 NB     7g3-       0.0000    0.0000   -0.0000   -0.0000   -0.0000    0.0000   -0.0000   -0.0000   -0.0000   -0.0000
      120 NB     8g3-      -0.0000    0.0000    0.0000   -0.0000   -0.0000    0.0000    0.0000   -0.0000    0.0000   -0.0000
      121 NB     5g2-      -0.0000    0.0000   -0.0016   -0.0000    0.0000   -0.0004   -0.0000    0.0000    0.0000    0.0001
      122 NB     6g2-       0.0000   -0.0000    0.0018    0.0000   -0.0000    0.0002    0.0000    0.0000   -0.0000    0.0000
      123 NB     7g2-      -0.0000    0.0000   -0.0028   -0.0000   -0.0000   -0.0002   -0.0000   -0.0000    0.0000    0.0001
      124 NB     8g2-       0.0000   -0.0000    0.0042    0.0000    0.0000    0.0002    0.0000    0.0000   -0.0000   -0.0000
      125 NB     5g1-       0.0000    0.0000    0.0003    0.0000    0.0000   -0.0030   -0.0000   -0.0000   -0.0000    0.0006
      126 NB     6g1-      -0.0000   -0.0000   -0.0005   -0.0000   -0.0000    0.0015    0.0000    0.0000    0.0000   -0.0001
      127 NB     7g1-       0.0000    0.0000    0.0010    0.0000   -0.0000   -0.0008   -0.0000   -0.0000   -0.0000    0.0003
      128 NB     8g1-      -0.0000    0.0000   -0.0017   -0.0000    0.0000    0.0003    0.0000   -0.0000    0.0000   -0.0000
      129 NB     5g0        0.0000   -0.0031   -0.0000   -0.0000   -0.0004    0.0000    0.0000   -0.0037    0.0000    0.0000
      130 NB     6g0       -0.0000    0.0036   -0.0000    0.0000    0.0002    0.0000   -0.0000    0.0018   -0.0000    0.0000
      131 NB     7g0        0.0000   -0.0055    0.0000   -0.0000   -0.0001   -0.0000    0.0000   -0.0009    0.0000    0.0000
      132 NB     8g0       -0.0000    0.0081    0.0000    0.0000    0.0000    0.0000    0.0000   -0.0000   -0.0000   -0.0000
      133 NB     5g1+      -0.0012   -0.0000   -0.0000    0.0003    0.0000    0.0000   -0.0030   -0.0000   -0.0000   -0.0000
      134 NB     6g1+       0.0014    0.0000    0.0000   -0.0005   -0.0000   -0.0000    0.0015    0.0000    0.0000    0.0000
      135 NB     7g1+      -0.0020   -0.0000   -0.0000    0.0010    0.0000    0.0000   -0.0008   -0.0000   -0.0000   -0.0000
      136 NB     8g1+       0.0029    0.0000    0.0000   -0.0017   -0.0000   -0.0000    0.0003    0.0000    0.0000    0.0000
      137 NB     5g2+      -0.0004   -0.0000   -0.0000    0.0016   -0.0000   -0.0000    0.0004    0.0000   -0.0000    0.0000
      138 NB     6g2+       0.0004    0.0000    0.0000   -0.0018   -0.0000    0.0000   -0.0002   -0.0000   -0.0000    0.0000
      139 NB     7g2+      -0.0005   -0.0000   -0.0000    0.0028    0.0000   -0.0000    0.0002    0.0000   -0.0000    0.0000
      140 NB     8g2+       0.0008    0.0000    0.0000   -0.0042   -0.0000    0.0000   -0.0002    0.0000    0.0000   -0.0000
      141 NB     5g3+      -0.0000   -0.0007   -0.0000   -0.0000    0.0014   -0.0000    0.0000   -0.0019   -0.0003    0.0000
      142 NB     6g3+       0.0000    0.0008    0.0000    0.0000   -0.0010    0.0000   -0.0000    0.0009    0.0003    0.0000
      143 NB     7g3+      -0.0000   -0.0012   -0.0000   -0.0000    0.0006   -0.0000    0.0000   -0.0004   -0.0001    0.0000
      144 NB     8g3+       0.0000    0.0019    0.0000    0.0000   -0.0002    0.0000    0.0000   -0.0001    0.0001    0.0000
      145 NB     5g4+       0.0003   -0.0000   -0.0000    0.0017    0.0000    0.0000   -0.0022   -0.0000   -0.0000   -0.0000
      146 NB     6g4+      -0.0003    0.0000    0.0000   -0.0020   -0.0000   -0.0000    0.0011    0.0000    0.0000    0.0000
      147 NB     7g4+       0.0005   -0.0000   -0.0000    0.0031    0.0000    0.0000   -0.0006   -0.0000   -0.0000   -0.0000
      148 NB     8g4+      -0.0007    0.0000    0.0000   -0.0046   -0.0000   -0.0000    0.0001   -0.0000    0.0000    0.0000
      149 NB     6h5-      -0.0000   -0.0000   -0.0007   -0.0000    0.0000   -0.0000   -0.0000    0.0000   -0.0000    0.0000
      150 NB     7h5-       0.0000   -0.0000    0.0008    0.0000   -0.0000    0.0000    0.0000   -0.0000    0.0000   -0.0000
      151 NB     6h4-       0.0000    0.0000   -0.0010   -0.0000    0.0000    0.0006    0.0000    0.0000    0.0000   -0.0001
      152 NB     7h4-      -0.0000   -0.0000    0.0012    0.0000   -0.0000   -0.0004   -0.0000   -0.0000   -0.0000    0.0001
      153 NB     6h3-       0.0000    0.0000    0.0000   -0.0000    0.0000   -0.0000   -0.0000    0.0000   -0.0000    0.0000
      154 NB     7h3-       0.0000    0.0000   -0.0000   -0.0000   -0.0000    0.0000    0.0000    0.0000    0.0000   -0.0000
      155 NB     6h2-      -0.0000    0.0000   -0.0007   -0.0000    0.0000    0.0002    0.0000    0.0000    0.0000   -0.0000
      156 NB     7h2-       0.0000   -0.0000    0.0007    0.0000   -0.0000   -0.0001   -0.0000   -0.0000   -0.0000    0.0000
      157 NB     6h1-       0.0000   -0.0000   -0.0014   -0.0000   -0.0000   -0.0001   -0.0000   -0.0000   -0.0000    0.0000
      158 NB     7h1-      -0.0000    0.0000    0.0016    0.0000   -0.0000    0.0001    0.0000   -0.0000    0.0000   -0.0000
      159 NB     6h0       -0.0000   -0.0019   -0.0000   -0.0000   -0.0001    0.0000   -0.0000   -0.0001    0.0000    0.0000
      160 NB     7h0        0.0000    0.0021   -0.0000    0.0000    0.0001   -0.0000    0.0000    0.0001   -0.0000   -0.0000
      161 NB     6h1+      -0.0006    0.0000    0.0000   -0.0014   -0.0000    0.0000   -0.0001    0.0000    0.0000   -0.0000
      162 NB     7h1+       0.0007   -0.0000   -0.0000    0.0016    0.0000   -0.0000    0.0001   -0.0000   -0.0000    0.0000
      163 NB     6h2+      -0.0006    0.0000   -0.0000    0.0007    0.0000    0.0000   -0.0002   -0.0000   -0.0000   -0.0000
      164 NB     7h2+       0.0006   -0.0000    0.0000   -0.0007   -0.0000   -0.0000    0.0001    0.0000    0.0000    0.0000
      165 NB     6h3+      -0.0000   -0.0005    0.0000   -0.0000   -0.0002   -0.0000   -0.0000    0.0007    0.0000   -0.0000
      166 NB     7h3+       0.0000    0.0005   -0.0000    0.0000    0.0002    0.0000    0.0000   -0.0004   -0.0000    0.0000
      167 NB     6h4+      -0.0003    0.0000    0.0000   -0.0010   -0.0000   -0.0000    0.0006    0.0000    0.0000    0.0000
      168 NB     7h4+       0.0004   -0.0000   -0.0000    0.0012    0.0000    0.0000   -0.0004   -0.0000   -0.0000   -0.0000
      169 NB     6h5+      -0.0007    0.0000   -0.0000    0.0007   -0.0000   -0.0000    0.0000   -0.0000    0.0000    0.0000
      170 NB     7h5+       0.0008   -0.0000    0.0000   -0.0008    0.0000    0.0000   -0.0000    0.0000   -0.0000   -0.0000

          Orbital           21        22        23        24        25        26        27        28        29        30    
          Energy           -0.0852   -0.0829   -0.0540   -0.0540   -0.0535   -0.0535   -0.0534   -0.0133    0.0303    0.0303
          Occ. No.          0.0000    0.0000    0.0000    0.0000    0.0000    0.0000    0.0000    0.0000    0.0000    0.0000

        1 NB     1s         0.0000    0.0000    0.0000   -0.0000    0.0000    0.0000   -0.0000    0.0000   -0.0000    0.0000
        2 NB     2s        -0.0000   -0.0000    0.0000   -0.0000    0.0000    0.0000   -0.0000   -0.0001   -0.0000    0.0000
        3 NB     3s        -0.0000   -0.0006    0.0000   -0.0000   -0.0000    0.0000   -0.0002   -0.0051   -0.0000    0.0000
        4 NB     4s         0.0000    0.0063   -0.0000    0.0000    0.0000    0.0000    0.0006    0.0734    0.0000   -0.0000
        5 NB     5s        -0.0000   -0.0322   -0.0000    0.0000    0.0000   -0.0000    0.0026   -0.3047   -0.0000    0.0000
        6 NB     6s        -0.0000   -0.0485    0.0000   -0.0000   -0.0000    0.0000   -0.0110    0.7943    0.0000   -0.0000
        7 NB     7s        -0.0000   -0.0058    0.0000   -0.0000   -0.0000    0.0000   -0.0033    0.4489    0.0000   -0.0000
        8 NB     8s        -0.0000   -0.0033    0.0000   -0.0000   -0.0000    0.0000   -0.0017    0.2500    0.0000   -0.0000
        9 NB     9s        -0.0000   -0.0005    0.0000   -0.0000   -0.0000    0.0000   -0.0004    0.0574    0.0000   -0.0000
       10 NB    10s         0.0000    0.0000    0.0000   -0.0000   -0.0000    0.0000    0.0000    0.0049    0.0000   -0.0000
       11 NB     2px        0.0001    0.0000    0.0000   -0.0000   -0.0000    0.0000    0.0000    0.0000   -0.0000    0.0000
       12 NB     3px        0.0047    0.0000    0.0000   -0.0004   -0.0000    0.0013    0.0000   -0.0000   -0.0000    0.0005
       13 NB     4px       -0.0736   -0.0000   -0.0000    0.0022    0.0000   -0.0089   -0.0000   -0.0000    0.0000   -0.0006
       14 NB     5px        0.7783    0.0000    0.0000   -0.0090   -0.0000    0.0056    0.0000   -0.0000    0.0000   -0.0019
       15 NB     6px        0.4672    0.0000    0.0000   -0.0080   -0.0000    0.0164    0.0000    0.0000   -0.0000    0.0043
       16 NB     7px        0.3787    0.0000    0.0000   -0.0068   -0.0000    0.0137    0.0000    0.0000   -0.0000    0.0061
       17 NB     8px        0.1513    0.0000    0.0000   -0.0030   -0.0000    0.0061    0.0000    0.0000   -0.0000    0.0036
       18 NB     9px        0.0528    0.0000    0.0000   -0.0011   -0.0000    0.0023    0.0000    0.0000   -0.0000    0.0016
       19 NB    10px        0.0068    0.0000    0.0000   -0.0001   -0.0000    0.0002    0.0000    0.0000   -0.0000    0.0002
       20 NB     2py        0.0000    0.0000    0.0000    0.0000    0.0000    0.0000   -0.0000   -0.0000   -0.0000   -0.0000
       21 NB     3py        0.0000   -0.0000    0.0004    0.0000    0.0013    0.0000   -0.0000    0.0000   -0.0005   -0.0000
       22 NB     4py       -0.0000    0.0000   -0.0022   -0.0000   -0.0089   -0.0000    0.0000   -0.0000    0.0006    0.0000
       23 NB     5py        0.0000   -0.0000    0.0090    0.0000    0.0056    0.0000   -0.0000   -0.0000    0.0019    0.0000
       24 NB     6py        0.0000   -0.0000    0.0080    0.0000    0.0164    0.0000   -0.0000   -0.0000   -0.0043   -0.0000
       25 NB     7py        0.0000   -0.0000    0.0068    0.0000    0.0137    0.0000   -0.0000   -0.0000   -0.0061   -0.0000
       26 NB     8py        0.0000   -0.0000    0.0030    0.0000    0.0061    0.0000   -0.0000   -0.0000   -0.0036   -0.0000
       27 NB     9py        0.0000   -0.0000    0.0011    0.0000    0.0023    0.0000   -0.0000   -0.0000   -0.0016   -0.0000
       28 NB    10py        0.0000   -0.0000    0.0001    0.0000    0.0002    0.0000   -0.0000   -0.0000   -0.0002   -0.0000
       29 NB     2pz       -0.0000    0.0001   -0.0000    0.0000   -0.0000    0.0000   -0.0000    0.0000    0.0000   -0.0000
       30 NB     3pz       -0.0000    0.0057   -0.0000    0.0000   -0.0000    0.0000   -0.0008    0.0008    0.0000   -0.0000
       31 NB     4pz        0.0000   -0.0827    0.0000   -0.0000    0.0000   -0.0000    0.0046   -0.0091   -0.0000    0.0000
       32 NB     5pz       -0.0000    0.7628    0.0000   -0.0000   -0.0000    0.0000   -0.0256   -0.0007   -0.0000    0.0000
       33 NB     6pz       -0.0000    0.4779   -0.0000   -0.0000   -0.0000    0.0000   -0.0206    0.0321    0.0000   -0.0000
       34 NB     7pz       -0.0000    0.3879   -0.0000   -0.0000   -0.0000    0.0000   -0.0176    0.0333    0.0000   -0.0000
       35 NB     8pz       -0.0000    0.1561   -0.0000   -0.0000   -0.0000    0.0000   -0.0076    0.0173    0.0000   -0.0000
       36 NB     9pz       -0.0000    0.0547   -0.0000   -0.0000   -0.0000    0.0000   -0.0028    0.0071    0.0000   -0.0000
       37 NB    10pz       -0.0000    0.0069   -0.0000   -0.0000   -0.0000    0.0000   -0.0003    0.0009    0.0000   -0.0000
       38 NB     3d2-      -0.0000    0.0000   -0.0060   -0.0000   -0.0028   -0.0000    0.0000    0.0000    0.0131    0.0000
       39 NB     4d2-      -0.0000    0.0000    0.3608    0.0000    0.1105    0.0000   -0.0000   -0.0000   -0.5311   -0.0000
       40 NB     5d2-      -0.0000   -0.0000    0.5712    0.0000    0.1830    0.0000   -0.0000    0.0000   -0.2956   -0.0000
       41 NB     6d2-      -0.0000    0.0000    0.5954    0.0000    0.1926    0.0000   -0.0000    0.0000    0.3185    0.0000
       42 NB     7d2-      -0.0000    0.0000    0.3077    0.0000    0.1006    0.0000   -0.0000    0.0000    0.5368    0.0000
       43 NB     8d2-       0.0000    0.0000    0.0277    0.0000    0.0095    0.0000   -0.0000    0.0000    0.2593    0.0000
       44 NB     9d2-       0.0000    0.0000   -0.0049   -0.0000   -0.0013   -0.0000    0.0000    0.0000    0.1333    0.0000
       45 NB    10d2-      -0.0000   -0.0000    0.0060    0.0000    0.0018    0.0000   -0.0000   -0.0000   -0.0133   -0.0000
       46 NB     3d1-      -0.0000    0.0000    0.0013    0.0000   -0.0070   -0.0000    0.0000   -0.0000   -0.0045   -0.0000
       47 NB     4d1-      -0.0000   -0.0000   -0.1176   -0.0000    0.3500    0.0000   -0.0000   -0.0000    0.2285    0.0000
       48 NB     5d1-      -0.0000   -0.0000   -0.1830   -0.0000    0.5706    0.0000   -0.0000    0.0000    0.1264    0.0000
       49 NB     6d1-      -0.0000   -0.0000   -0.1903   -0.0000    0.5996    0.0000   -0.0000    0.0000   -0.1365   -0.0000
       50 NB     7d1-       0.0000   -0.0000   -0.0981   -0.0000    0.3126    0.0000   -0.0000    0.0000   -0.2301   -0.0000
       51 NB     8d1-       0.0000    0.0000   -0.0088   -0.0000    0.0295    0.0000   -0.0000    0.0000   -0.1111   -0.0000
       52 NB     9d1-       0.0000    0.0000    0.0016    0.0000   -0.0042   -0.0000    0.0000    0.0000   -0.0571   -0.0000
       53 NB    10d1-      -0.0000   -0.0000   -0.0020   -0.0000    0.0058    0.0000   -0.0000   -0.0000    0.0058    0.0000
       54 NB     3d0       -0.0000    0.0012    0.0000   -0.0000   -0.0000    0.0000   -0.0073   -0.0001   -0.0000    0.0000
       55 NB     4d0       -0.0000    0.0218   -0.0000    0.0000    0.0000   -0.0000    0.3667   -0.0176    0.0000   -0.0000
       56 NB     5d0       -0.0000    0.0246   -0.0000    0.0000    0.0000   -0.0000    0.5985    0.0059    0.0000   -0.0000
       57 NB     6d0       -0.0000    0.0202   -0.0000    0.0000    0.0000   -0.0000    0.6296    0.0168   -0.0000    0.0000
       58 NB     7d0       -0.0000    0.0064   -0.0000    0.0000    0.0000   -0.0000    0.3287    0.0154   -0.0000    0.0000
       59 NB     8d0        0.0000   -0.0011   -0.0000    0.0000    0.0000   -0.0000    0.0312    0.0045   -0.0000    0.0000
       60 NB     9d0        0.0000   -0.0015    0.0000   -0.0000   -0.0000    0.0000   -0.0042    0.0022   -0.0000    0.0000
       61 NB    10d0       -0.0000    0.0005   -0.0000    0.0000    0.0000   -0.0000    0.0061   -0.0002    0.0000   -0.0000
       62 NB     3d1+      -0.0010    0.0000    0.0000   -0.0013    0.0000   -0.0070   -0.0000    0.0000   -0.0000    0.0045
       63 NB     4d1+      -0.0278   -0.0000   -0.0000    0.1176   -0.0000    0.3500    0.0000   -0.0000    0.0000   -0.2285
       64 NB     5d1+      -0.0044    0.0000   -0.0000    0.1830   -0.0000    0.5706    0.0000    0.0000    0.0000   -0.1264
       65 NB     6d1+      -0.0019    0.0000   -0.0000    0.1903   -0.0000    0.5996    0.0000    0.0000   -0.0000    0.1365
       66 NB     7d1+       0.0008    0.0000   -0.0000    0.0981   -0.0000    0.3126    0.0000    0.0000   -0.0000    0.2301
       67 NB     8d1+       0.0002   -0.0000   -0.0000    0.0088   -0.0000    0.0295    0.0000    0.0000   -0.0000    0.1111
       68 NB     9d1+       0.0004   -0.0000    0.0000   -0.0016    0.0000   -0.0042   -0.0000    0.0000   -0.0000    0.0571
       69 NB    10d1+      -0.0003   -0.0000   -0.0000    0.0020   -0.0000    0.0058    0.0000   -0.0000    0.0000   -0.0058
       70 NB     3d2+       0.0008   -0.0000    0.0000   -0.0060   -0.0000    0.0028    0.0000   -0.0000   -0.0000    0.0131
       71 NB     4d2+       0.0198   -0.0000   -0.0000    0.3608    0.0000   -0.1105   -0.0000   -0.0000    0.0000   -0.5311
       72 NB     5d2+       0.0106   -0.0000   -0.0000    0.5712    0.0000   -0.1830   -0.0000    0.0000    0.0000   -0.2956
       73 NB     6d2+       0.0078   -0.0000   -0.0000    0.5954    0.0000   -0.1926   -0.0000    0.0000   -0.0000    0.3185
       74 NB     7d2+       0.0018   -0.0000   -0.0000    0.3077    0.0000   -0.1006   -0.0000    0.0000   -0.0000    0.5368
       75 NB     8d2+      -0.0005    0.0000   -0.0000    0.0277    0.0000   -0.0095   -0.0000    0.0000   -0.0000    0.2593
       76 NB     9d2+      -0.0007    0.0000    0.0000   -0.0049   -0.0000    0.0013    0.0000    0.0000   -0.0000    0.1333
       77 NB    10d2+       0.0003   -0.0000   -0.0000    0.0060    0.0000   -0.0018   -0.0000   -0.0000    0.0000   -0.0133
       78 NB     4f3-       0.0000    0.0000    0.0000    0.0000    0.0000    0.0000   -0.0000   -0.0000   -0.0000   -0.0000
       79 NB     5f3-       0.0000   -0.0000   -0.0000   -0.0000   -0.0000   -0.0000    0.0000    0.0000    0.0000    0.0000
       80 NB     6f3-       0.0000   -0.0000   -0.0000   -0.0000   -0.0000   -0.0000    0.0000   -0.0000    0.0000    0.0000
       81 NB     7f3-       0.0000   -0.0000   -0.0000   -0.0000   -0.0000   -0.0000    0.0000   -0.0000    0.0000   -0.0000
       82 NB     8f3-      -0.0000    0.0000    0.0000    0.0000   -0.0000    0.0000   -0.0000    0.0000   -0.0000    0.0000
       83 NB     4f2-      -0.0000    0.0000    0.0025    0.0000    0.0008    0.0000   -0.0000   -0.0000   -0.0052   -0.0000
       84 NB     5f2-       0.0000   -0.0000   -0.0016   -0.0000   -0.0001   -0.0000   -0.0000    0.0000    0.0024    0.0000
       85 NB     6f2-       0.0000   -0.0000   -0.0016   -0.0000    0.0001    0.0000   -0.0000    0.0000    0.0017    0.0000
       86 NB     7f2-       0.0000   -0.0000   -0.0008   -0.0000    0.0005    0.0000   -0.0000    0.0000   -0.0001   -0.0000
       87 NB     8f2-      -0.0000    0.0000    0.0001    0.0000   -0.0011   -0.0000    0.0000   -0.0000    0.0015    0.0000
       88 NB     4f1-       0.0000   -0.0000   -0.0010   -0.0000    0.0024    0.0000   -0.0000   -0.0000    0.0029    0.0000
       89 NB     5f1-       0.0000    0.0000    0.0008    0.0000   -0.0027   -0.0000    0.0000    0.0000   -0.0020   -0.0000
       90 NB     6f1-       0.0000    0.0000    0.0008    0.0000   -0.0028   -0.0000    0.0000    0.0000   -0.0019   -0.0000
       91 NB     7f1-       0.0000    0.0000    0.0005    0.0000   -0.0019   -0.0000    0.0000    0.0000   -0.0010   -0.0000
       92 NB     8f1-      -0.0000   -0.0000   -0.0003   -0.0000    0.0012    0.0000   -0.0000   -0.0000    0.0004    0.0000
       93 NB     4f0       -0.0000    0.0006   -0.0000    0.0000    0.0000   -0.0000    0.0026   -0.0027    0.0000    0.0000
       94 NB     5f0       -0.0000    0.0015    0.0000   -0.0000   -0.0000    0.0000   -0.0035   -0.0011   -0.0000    0.0000
       95 NB     6f0       -0.0000    0.0010    0.0000   -0.0000   -0.0000    0.0000   -0.0038    0.0005   -0.0000    0.0000
       96 NB     7f0       -0.0000    0.0011    0.0000   -0.0000   -0.0000    0.0000   -0.0029   -0.0017   -0.0000    0.0000
       97 NB     8f0        0.0000   -0.0008   -0.0000    0.0000    0.0000   -0.0000    0.0025    0.0013    0.0000   -0.0000
       98 NB     4f1+       0.0001    0.0000   -0.0000    0.0010   -0.0000    0.0024    0.0000   -0.0000    0.0000   -0.0029
       99 NB     5f1+       0.0014    0.0000    0.0000   -0.0008    0.0000   -0.0027   -0.0000   -0.0000   -0.0000    0.0020
      100 NB     6f1+       0.0009    0.0000    0.0000   -0.0008    0.0000   -0.0028   -0.0000    0.0000   -0.0000    0.0019
      101 NB     7f1+       0.0009    0.0000    0.0000   -0.0005    0.0000   -0.0019   -0.0000   -0.0000   -0.0000    0.0010
      102 NB     8f1+      -0.0006   -0.0000   -0.0000    0.0003   -0.0000    0.0012    0.0000    0.0000    0.0000   -0.0004
      103 NB     4f2+       0.0002    0.0000   -0.0000    0.0025    0.0000   -0.0008   -0.0000   -0.0000    0.0000   -0.0052
      104 NB     5f2+      -0.0003    0.0000    0.0000   -0.0016   -0.0000    0.0001    0.0000    0.0000   -0.0000    0.0024
      105 NB     6f2+      -0.0003    0.0000    0.0000   -0.0016    0.0000   -0.0001    0.0000    0.0000   -0.0000    0.0017
      106 NB     7f2+      -0.0005    0.0000    0.0000   -0.0008    0.0000   -0.0005   -0.0000    0.0000    0.0000   -0.0001
      107 NB     8f2+       0.0007   -0.0000   -0.0000    0.0001   -0.0000    0.0011    0.0000   -0.0000   -0.0000    0.0015
      108 NB     4f3+       0.0000   -0.0002   -0.0000    0.0000    0.0000   -0.0000    0.0003   -0.0018    0.0000   -0.0000
      109 NB     5f3+       0.0000   -0.0003    0.0000   -0.0000   -0.0000    0.0000    0.0004   -0.0008   -0.0000    0.0000
      110 NB     6f3+       0.0000   -0.0002    0.0000   -0.0000   -0.0000    0.0000    0.0004    0.0002   -0.0000    0.0000
      111 NB     7f3+       0.0000   -0.0005    0.0000   -0.0000   -0.0000    0.0000    0.0005   -0.0013   -0.0000    0.0000
      112 NB     8f3+      -0.0000    0.0007   -0.0000    0.0000    0.0000   -0.0000   -0.0006    0.0011    0.0000   -0.0000
      113 NB     5g4-       0.0000   -0.0000   -0.0000   -0.0000    0.0001    0.0000   -0.0000   -0.0000    0.0001    0.0000
      114 NB     6g4-      -0.0000    0.0000    0.0000    0.0000    0.0000    0.0000   -0.0000    0.0000   -0.0000   -0.0000
      115 NB     7g4-       0.0000   -0.0000   -0.0000   -0.0000   -0.0000   -0.0000    0.0000   -0.0000    0.0000    0.0000
      116 NB     8g4-      -0.0000    0.0000    0.0000    0.0000    0.0001    0.0000   -0.0000    0.0000   -0.0000   -0.0000
      117 NB     5g3-      -0.0000   -0.0000   -0.0000   -0.0000   -0.0000   -0.0000   -0.0000   -0.0000    0.0000    0.0000
      118 NB     6g3-      -0.0000    0.0000   -0.0000   -0.0000   -0.0000   -0.0000   -0.0000    0.0000    0.0000    0.0000
      119 NB     7g3-      -0.0000    0.0000   -0.0000   -0.0000   -0.0000   -0.0000   -0.0000   -0.0000   -0.0000    0.0000
      120 NB     8g3-      -0.0000   -0.0000   -0.0000   -0.0000   -0.0000   -0.0000    0.0000   -0.0000    0.0000    0.0000
      121 NB     5g2-       0.0000    0.0000   -0.0003   -0.0000   -0.0001   -0.0000    0.0000    0.0000    0.0006    0.0000
      122 NB     6g2-       0.0000   -0.0000   -0.0002   -0.0000   -0.0001   -0.0000    0.0000    0.0000    0.0004    0.0000
      123 NB     7g2-       0.0000   -0.0000   -0.0001   -0.0000   -0.0000   -0.0000    0.0000   -0.0000    0.0003    0.0000
      124 NB     8g2-      -0.0000    0.0000   -0.0001   -0.0000   -0.0001   -0.0000    0.0000    0.0000    0.0001    0.0000
      125 NB     5g1-       0.0000   -0.0000    0.0002    0.0000   -0.0004   -0.0000    0.0000    0.0000   -0.0005   -0.0000
      126 NB     6g1-      -0.0000    0.0000    0.0001    0.0000   -0.0003   -0.0000    0.0000    0.0000   -0.0002   -0.0000
      127 NB     7g1-       0.0000   -0.0000    0.0001    0.0000   -0.0002   -0.0000    0.0000   -0.0000   -0.0002   -0.0000
      128 NB     8g1-      -0.0000    0.0000    0.0001    0.0000   -0.0000   -0.0000    0.0000    0.0000   -0.0001   -0.0000
      129 NB     5g0       -0.0000    0.0008    0.0000   -0.0000   -0.0000    0.0000   -0.0005    0.0000    0.0000    0.0000
      130 NB     6g0        0.0000   -0.0001    0.0000   -0.0000   -0.0000    0.0000   -0.0003    0.0000    0.0000    0.0000
      131 NB     7g0       -0.0000    0.0004    0.0000   -0.0000   -0.0000    0.0000   -0.0002   -0.0000   -0.0000    0.0000
      132 NB     8g0       -0.0000    0.0000   -0.0000   -0.0000   -0.0000    0.0000   -0.0002    0.0000   -0.0000    0.0000
      133 NB     5g1+       0.0006    0.0000    0.0000   -0.0002    0.0000   -0.0004   -0.0000    0.0000   -0.0000    0.0005
      134 NB     6g1+      -0.0001   -0.0000    0.0000   -0.0001    0.0000   -0.0003   -0.0000   -0.0000   -0.0000    0.0002
      135 NB     7g1+       0.0003    0.0000    0.0000   -0.0001    0.0000   -0.0002   -0.0000    0.0000   -0.0000    0.0002
      136 NB     8g1+      -0.0000   -0.0000    0.0000   -0.0001    0.0000   -0.0000   -0.0000   -0.0000   -0.0000    0.0001
      137 NB     5g2+      -0.0001   -0.0000    0.0000   -0.0003   -0.0000    0.0001   -0.0000    0.0000   -0.0000    0.0006
      138 NB     6g2+      -0.0000   -0.0000    0.0000   -0.0002   -0.0000    0.0001   -0.0000    0.0000   -0.0000    0.0004
      139 NB     7g2+      -0.0001   -0.0000    0.0000   -0.0001   -0.0000    0.0000   -0.0000    0.0000   -0.0000    0.0003
      140 NB     8g2+       0.0000   -0.0000    0.0000   -0.0001   -0.0000    0.0001    0.0000   -0.0000   -0.0000    0.0001
      141 NB     5g3+      -0.0000    0.0004    0.0000   -0.0000    0.0000   -0.0000   -0.0000    0.0003   -0.0000    0.0000
      142 NB     6g3+      -0.0000   -0.0001    0.0000   -0.0000    0.0000   -0.0000   -0.0000   -0.0003   -0.0000    0.0000
      143 NB     7g3+      -0.0000    0.0002    0.0000   -0.0000    0.0000   -0.0000   -0.0000    0.0002   -0.0000    0.0000
      144 NB     8g3+      -0.0000    0.0000    0.0000   -0.0000   -0.0000   -0.0000   -0.0000   -0.0001   -0.0000    0.0000
      145 NB     5g4+       0.0004    0.0000   -0.0000    0.0000   -0.0000    0.0001    0.0000    0.0000    0.0000   -0.0001
      146 NB     6g4+      -0.0000   -0.0000    0.0000   -0.0000   -0.0000    0.0000    0.0000   -0.0000   -0.0000    0.0000
      147 NB     7g4+       0.0002    0.0000   -0.0000    0.0000    0.0000   -0.0000   -0.0000    0.0000    0.0000   -0.0000
      148 NB     8g4+      -0.0000   -0.0000    0.0000   -0.0000   -0.0000    0.0001    0.0000   -0.0000   -0.0000    0.0000
      149 NB     6h5-       0.0000   -0.0000   -0.0001   -0.0000   -0.0000   -0.0000   -0.0000   -0.0000    0.0002    0.0000
      150 NB     7h5-      -0.0000    0.0000    0.0001    0.0000    0.0000    0.0000    0.0000   -0.0000   -0.0002   -0.0000
      151 NB     6h4-      -0.0000    0.0000    0.0000    0.0000   -0.0001   -0.0000    0.0000   -0.0000   -0.0001   -0.0000
      152 NB     7h4-       0.0000   -0.0000   -0.0000   -0.0000    0.0000    0.0000   -0.0000    0.0000    0.0001    0.0000
      153 NB     6h3-       0.0000   -0.0000   -0.0000    0.0000    0.0000   -0.0000    0.0000   -0.0000    0.0000    0.0000
      154 NB     7h3-      -0.0000    0.0000    0.0000    0.0000   -0.0000   -0.0000    0.0000    0.0000   -0.0000   -0.0000
      155 NB     6h2-      -0.0000    0.0000   -0.0001   -0.0000   -0.0000   -0.0000    0.0000    0.0000    0.0002    0.0000
      156 NB     7h2-       0.0000   -0.0000    0.0001    0.0000    0.0000    0.0000   -0.0000   -0.0000   -0.0001   -0.0000
      157 NB     6h1-       0.0000    0.0000    0.0000    0.0000   -0.0001   -0.0000    0.0000   -0.0000   -0.0001   -0.0000
      158 NB     7h1-      -0.0000    0.0000   -0.0000   -0.0000    0.0001    0.0000   -0.0000    0.0000    0.0001    0.0000
      159 NB     6h0        0.0000    0.0000    0.0000   -0.0000   -0.0000    0.0000   -0.0001    0.0000   -0.0000    0.0000
      160 NB     7h0       -0.0000   -0.0000   -0.0000    0.0000    0.0000   -0.0000    0.0001    0.0000    0.0000   -0.0000
      161 NB     6h1+       0.0000   -0.0000    0.0000   -0.0000    0.0000   -0.0001   -0.0000   -0.0000   -0.0000    0.0001
      162 NB     7h1+      -0.0000    0.0000   -0.0000    0.0000   -0.0000    0.0001    0.0000    0.0000    0.0000   -0.0001
      163 NB     6h2+       0.0000    0.0000    0.0000   -0.0001   -0.0000    0.0000    0.0000    0.0000   -0.0000    0.0002
      164 NB     7h2+      -0.0000   -0.0000   -0.0000    0.0001    0.0000   -0.0000   -0.0000   -0.0000    0.0000   -0.0001
      165 NB     6h3+       0.0000   -0.0001    0.0000   -0.0000   -0.0000    0.0000   -0.0000   -0.0000    0.0000    0.0000
      166 NB     7h3+      -0.0000    0.0001    0.0000    0.0000    0.0000   -0.0000    0.0000    0.0000    0.0000    0.0000
      167 NB     6h4+      -0.0001   -0.0000    0.0000   -0.0000    0.0000   -0.0001   -0.0000   -0.0000   -0.0000    0.0001
      168 NB     7h4+       0.0001    0.0000   -0.0000    0.0000   -0.0000    0.0000    0.0000    0.0000    0.0000   -0.0001
      169 NB     6h5+      -0.0000    0.0000    0.0000   -0.0001   -0.0000    0.0000    0.0000    0.0000   -0.0000    0.0002
[...]
      ****************************************************************************************************


++ Dipole transition strengths (SO states):
   ----------------------------------------
    for osc. strength at least    1.0000000000000001E-005

      From   To        Osc. strength     Einstein coefficients Ax, Ay, Az (sec-1)    Total A (sec-1)
     -----------------------------------------------------------------------------------------------
         1    3       4.05480030E-01  2.21012873E+00  4.80656327E+07  1.26956845E-12  4.80656349E+07
         1    5       4.05480093E-01  4.80656517E+07  2.21012949E+00  3.82881545E-05  4.80656539E+07
         1    7       4.20732509E-01  3.98348242E-05  3.83074701E-14  5.37335285E+07  5.37335285E+07
         1   13       1.85910962E-03  6.84122285E-02  5.10215786E+05  1.13979979E-13  5.10215855E+05
         1   15       1.85910909E-03  5.10215655E+05  6.84122318E-02  1.13428936E-06  5.10215723E+05
         2    4       4.05480030E-01  2.21012873E+00  4.80656327E+07  1.26956845E-12  4.80656349E+07
         2    6       4.05480093E-01  4.80656517E+07  2.21012949E+00  3.82881545E-05  4.80656539E+07
         2    8       4.20732509E-01  3.98348242E-05  3.83074701E-14  5.37335285E+07  5.37335285E+07
         2   14       1.85910962E-03  6.84122285E-02  5.10215786E+05  1.13979979E-13  5.10215855E+05
         2   16       1.85910909E-03  5.10215655E+05  6.84122318E-02  1.13428936E-06  5.10215723E+05
         3    7       1.41525022E-04  1.11246306E-06  2.41936793E+01  4.14912517E-18  2.41936804E+01
         3    9       1.39863621E-01  3.96756253E+01  4.34664948E+06  5.37409192E+00  4.34669453E+06
         3   11       1.54390280E-01  4.34663502E+06  3.96757606E+01  4.51480698E+05  4.79815540E+06
         3   13       1.56806434E-01  4.75066354E+05  1.60147926E-01  4.58147880E+06  5.05654532E+06
         3   15       1.47320264E-02  1.60148030E-01  4.75064199E+05  1.05492469E-01  4.75064465E+05
         3   17       5.47679246E-02  8.18301480E-02  1.77960775E+06  8.68309633E-13  1.77960783E+06
         4    8       1.41525022E-04  1.11246306E-06  2.41936793E+01  4.14912517E-18  2.41936804E+01
         4   10       1.39863621E-01  3.96756253E+01  4.34664948E+06  5.37409192E+00  4.34669453E+06
         4   12       1.54390280E-01  4.34663502E+06  3.96757606E+01  4.51480698E+05  4.79815540E+06
         4   14       1.56806434E-01  4.75066354E+05  1.60147926E-01  4.58147880E+06  5.05654532E+06
         4   16       1.47320264E-02  1.60148030E-01  4.75064199E+05  1.05492469E-01  4.75064465E+05
         4   18       5.47679246E-02  8.18301480E-02  1.77960775E+06  8.68309633E-13  1.77960783E+06
         5    7       1.41524751E-04  2.41934791E+01  1.11245096E-06  1.09377902E-10  2.41934803E+01
         5    9       1.54389960E-01  4.34663092E+06  3.96756139E+01  4.51472585E+05  4.79814318E+06
         5   11       1.39863209E-01  3.96755828E+01  4.34663465E+06  5.37401156E+00  4.34667970E+06
         5   13       1.47320103E-02  1.60146103E-01  4.75063424E+05  1.05493346E-01  4.75063690E+05
         5   15       1.56806304E-01  4.75054393E+05  1.60148596E-01  4.58148461E+06  5.05653916E+06
         5   17       5.47686851E-02  1.77963164E+06  8.18289277E-02  1.69748601E-05  1.77963173E+06
         6    8       1.41524751E-04  2.41934791E+01  1.11245096E-06  1.09377902E-10  2.41934803E+01
         6   10       1.54389960E-01  4.34663092E+06  3.96756139E+01  4.51472585E+05  4.79814318E+06
         6   12       1.39863209E-01  3.96755828E+01  4.34663465E+06  5.37401156E+00  4.34667970E+06
         6   14       1.47320103E-02  1.60146103E-01  4.75063424E+05  1.05493346E-01  4.75063690E+05
         6   16       1.56806304E-01  4.75054393E+05  1.60148596E-01  4.58148461E+06  5.05653916E+06
         6   18       5.47686851E-02  1.77963164E+06  8.18289277E-02  1.69748601E-05  1.77963173E+06
         7    9       1.37793619E-02  3.67066535E+05  3.84306594E+00  8.25434997E-06  3.67070378E+05
         7   11       1.37794507E-02  3.84304426E+00  3.67068902E+05  8.67632588E-11  3.67072745E+05
         7   13       1.33109072E-01  4.94783693E-01  3.69007646E+06  4.95420785E-12  3.69007695E+06
         7   15       1.33109165E-01  3.69007934E+06  4.94783055E-01  3.60223831E-05  3.69007983E+06
         7   17       1.93359409E-01  2.18018934E-05  1.17787376E-16  5.40455963E+06  5.40455963E+06
         8   10       1.37793619E-02  3.67066535E+05  3.84306594E+00  8.25434997E-06  3.67070378E+05
         8   12       1.37794507E-02  3.84304426E+00  3.67068902E+05  8.67632588E-11  3.67072745E+05
         8   14       1.33109072E-01  4.94783693E-01  3.69007646E+06  4.95420785E-12  3.69007695E+06
         8   16       1.33109165E-01  3.69007934E+06  4.94783055E-01  3.60223831E-05  3.69007983E+06
         8   18       1.93359409E-01  2.18018934E-05  1.17787376E-16  5.40455963E+06  5.40455963E+06
     -----------------------------------------------------------------------------------------------
--

++ Velocity transition strengths (SO states):
   ------------------------------------------
    for osc. strength at least    1.0000000000000001E-005

      From   To        Osc. strength     Einstein coefficients Ax, Ay, Az (sec-1)    Total A (sec-1)
     -----------------------------------------------------------------------------------------------
         1    3       3.19451788E-01  1.74122553E+00  3.78679701E+07  1.01745256E-12  3.78679718E+07
         1    5       3.19451824E-01  3.78679836E+07  1.74122531E+00  3.02838878E-05  3.78679853E+07
         1    7       3.28345184E-01  3.09820524E-05  3.17722968E-14  4.19344983E+07  4.19344983E+07
         1   13       1.74203590E-03  6.41042874E-02  4.78087625E+05  8.07077580E-14  4.78087689E+05
         1   15       1.74203437E-03  4.78087220E+05  6.41043261E-02  7.47858124E-07  4.78087284E+05
         1   17       1.09856125E-04  1.52031783E-06  2.86863223E-17  3.02280469E+04  3.02280469E+04
         2    4       3.19451788E-01  1.74122553E+00  3.78679701E+07  1.01745256E-12  3.78679718E+07
         2    6       3.19451824E-01  3.78679836E+07  1.74122531E+00  3.02838878E-05  3.78679853E+07
         2    8       3.28345184E-01  3.09820524E-05  3.17722968E-14  4.19344983E+07  4.19344983E+07
         2   14       1.74203590E-03  6.41042874E-02  4.78087625E+05  8.07077580E-14  4.78087689E+05
         2   16       1.74203437E-03  4.78087220E+05  6.41043261E-02  7.47858124E-07  4.78087284E+05
         2   18       1.09856125E-04  1.52031783E-06  2.86863223E-17  3.02280469E+04  3.02280469E+04
         3    7       2.72881438E-03  2.14499864E-05  4.66491993E+02  3.00718438E-16  4.66492014E+02
         3    9       3.88799826E-01  1.10292659E+02  1.20830739E+07  1.47970412E+01  1.20831989E+07
         3   11       4.28797435E-01  1.20830340E+07  1.10293032E+02  1.24310835E+06  1.33262527E+07
         3   13       4.33972202E-01  1.32633279E+06  4.47115285E-01  1.26680398E+07  1.39943730E+07
         3   15       4.11300459E-02  4.47115515E-01  1.32632672E+06  2.91692508E-01  1.32632746E+06
         3   17       1.49876341E-01  2.23934804E-01  4.87004078E+06  2.36510919E-12  4.87004100E+06
         4    8       2.72881438E-03  2.14499864E-05  4.66491993E+02  3.00718438E-16  4.66492014E+02
         4   10       3.88799826E-01  1.10292659E+02  1.20830739E+07  1.47970412E+01  1.20831989E+07
         4   12       4.28797435E-01  1.20830340E+07  1.10293032E+02  1.24310835E+06  1.33262527E+07
         4   14       4.33972202E-01  1.32633279E+06  4.47115285E-01  1.26680398E+07  1.39943730E+07
         4   16       4.11300459E-02  4.47115515E-01  1.32632672E+06  2.91692508E-01  1.32632746E+06
         4   18       1.49876341E-01  2.23934804E-01  4.87004078E+06  2.36510919E-12  4.87004100E+06
         5    7       2.72882090E-03  4.66490142E+02  2.14498014E-05  3.29727604E-09  4.66490163E+02
         5    9       4.28796674E-01  1.20830262E+07  1.10292653E+02  1.24308618E+06  1.33262227E+07
         5   11       3.88798793E-01  1.10292571E+02  1.20830361E+07  1.47968228E+01  1.20831612E+07
         5   13       4.11300167E-02  4.47110413E-01  1.32632507E+06  2.91694921E-01  1.32632581E+06
         5   15       4.33971946E-01  1.32629998E+06  4.47117253E-01  1.26680590E+07  1.39943594E+07
         5   17       1.49878474E-01  4.87010784E+06  2.23931596E-01  4.64412157E-05  4.87010806E+06
         6    8       2.72882090E-03  4.66490142E+02  2.14498014E-05  3.29727604E-09  4.66490163E+02
         6   10       4.28796674E-01  1.20830262E+07  1.10292653E+02  1.24308618E+06  1.33262227E+07
         6   12       3.88798793E-01  1.10292571E+02  1.20830361E+07  1.47968228E+01  1.20831612E+07
         6   14       4.11300167E-02  4.47110413E-01  1.32632507E+06  2.91694921E-01  1.32632581E+06
         6   16       4.33971946E-01  1.32629998E+06  4.47117253E-01  1.26680590E+07  1.39943594E+07
         6   18       1.49878474E-01  4.87010784E+06  2.23931596E-01  4.64412157E-05  4.87010806E+06
         7    9       4.10010774E-02  1.09222589E+06  1.14352472E+01  2.57444597E-05  1.09223732E+06
         7   11       4.10013454E-02  1.14351820E+01  1.09223303E+06  2.70273939E-10  1.09224446E+06
         7   13       4.02694022E-01  1.49687128E+00  1.11636035E+07  1.49952477E-11  1.11636050E+07
         7   15       4.02694301E-01  1.11636121E+07  1.49686914E+00  1.09142134E-04  1.11636136E+07
         7   17       5.82560817E-01  6.62029015E-05  4.77375830E-16  1.62831260E+07  1.62831260E+07
         8   10       4.10010774E-02  1.09222589E+06  1.14352472E+01  2.57444597E-05  1.09223732E+06
         8   12       4.10013454E-02  1.14351820E+01  1.09223303E+06  2.70273939E-10  1.09224446E+06
         8   14       4.02694022E-01  1.49687128E+00  1.11636035E+07  1.49952477E-11  1.11636050E+07
         8   16       4.02694301E-01  1.11636121E+07  1.49686914E+00  1.09142134E-04  1.11636136E+07
         8   18       5.82560817E-01  6.62029015E-05  4.77375830E-16  1.62831260E+07  1.62831260E+07
         9   13       7.30652782E-04  6.49127196E-05  7.88345319E+00  4.10749650E-04  7.88392885E+00
         9   15       3.66488126E-03  7.88376354E+00  6.49136773E-05  3.16613366E+01  3.95451650E+01
         9   17       3.11759909E-03  4.91372150E+01  5.14453516E-04  2.67914428E-10  4.91377295E+01
        10   14       7.30652782E-04  6.49127196E-05  7.88345319E+00  4.10749650E-04  7.88392885E+00
        10   16       3.66488126E-03  7.88376354E+00  6.49136773E-05  3.16613366E+01  3.95451650E+01
        10   18       3.11759909E-03  4.91372150E+01  5.14453516E-04  2.67914428E-10  4.91377295E+01
        11   13       3.66483793E-03  7.88351894E+00  6.49124017E-05  3.16609470E+01  3.95445308E+01
        11   15       7.30662231E-04  6.49152703E-05  7.88358837E+00  4.10753181E-04  7.88406404E+00
        11   17       3.11763798E-03  5.14446827E-04  4.91378280E+01  2.42091582E-15  4.91383425E+01
        12   14       3.66483793E-03  7.88351894E+00  6.49124017E-05  3.16609470E+01  3.95445308E+01
        12   16       7.30662231E-04  6.49152703E-05  7.88358837E+00  4.10753181E-04  7.88406404E+00
        12   18       3.11763798E-03  5.14446827E-04  4.91378280E+01  2.42091582E-15  4.91383425E+01
        13   17       3.81820895E-02  2.40374110E-06  1.79270249E+01  3.47378449E-17  1.79270273E+01
        14   18       3.81820895E-02  2.40374110E-06  1.79270249E+01  3.47378449E-17  1.79270273E+01
        15   17       3.81824659E-02  1.79268395E+01  2.40371490E-06  1.72691792E-10  1.79268419E+01
        16   18       3.81824659E-02  1.79268395E+01  2.40371490E-06  1.72691792E-10  1.79268419E+01
     -----------------------------------------------------------------------------------------------
--

++ Length and velocity gauge comparison (SO states):

 --------------------------------------------------
 A comparison between the dipole oscillator strengths in 
 length and velocity gauge will be performed

 All dipole oscillator differences above the tolerance of   0.10000000000000001       will be printed 

 Due to basis set deficiency these oscillator may be problematic 

 The tolerance is defined as ABS(1-O_l/O_v) 
 O_l : dipole oscillator strength in length gauge
 O_p : dipole oscillator strength in velocity gauge
 --------------------------------------------------

  Problematic transitions have been found

      From   To       Difference (%) Osc. st. (len.) Osc. st. (vel.)
     ---------------------------------------------------------------
         1    3            26.929961  4.05480030E-01  3.19451788E-01
         1    5            26.929966  4.05480093E-01  3.19451824E-01
         1    7            28.137256  4.20732509E-01  3.28345184E-01
         1   17      --------------- below threshold  1.09856125E-04
         2    4            26.929961  4.05480030E-01  3.19451788E-01
         2    6            26.929966  4.05480093E-01  3.19451824E-01
         2    8            28.137256  4.20732509E-01  3.28345184E-01
         2   18      --------------- below threshold  1.09856125E-04
         3    7            94.813681  1.41525022E-04  2.72881438E-03
         3    9            64.026830  1.39863621E-01  3.88799826E-01
         3   11            63.994589  1.54390280E-01  4.28797435E-01
         3   13            63.867171  1.56806434E-01  4.33972202E-01
         3   15            64.181838  1.47320264E-02  4.11300459E-02
         3   17            63.457925  5.47679246E-02  1.49876341E-01
         4    8            94.813681  1.41525022E-04  2.72881438E-03
         4   10            64.026830  1.39863621E-01  3.88799826E-01
         4   12            63.994589  1.54390280E-01  4.28797435E-01
         4   14            63.867171  1.56806434E-01  4.33972202E-01
         4   16            64.181838  1.47320264E-02  4.11300459E-02
         4   18            63.457925  5.47679246E-02  1.49876341E-01
         5    7            94.813703  1.41524751E-04  2.72882090E-03
         5    9            63.994599  1.54389960E-01  4.28796674E-01
         5   11            64.026841  1.39863209E-01  3.88798793E-01
         5   13            64.181852  1.47320103E-02  4.11300167E-02
         5   15            63.867180  1.56806304E-01  4.33971946E-01
         5   17            63.457938  5.47686851E-02  1.49878474E-01
         6    8            94.813703  1.41524751E-04  2.72882090E-03
         6   10            63.994599  1.54389960E-01  4.28796674E-01
         6   12            64.026841  1.39863209E-01  3.88798793E-01
         6   14            64.181852  1.47320103E-02  4.11300167E-02
         6   16            63.867180  1.56806304E-01  4.33971946E-01
         6   18            63.457938  5.47686851E-02  1.49878474E-01
         7    9            66.392683  1.37793619E-02  4.10010774E-02
         7   11            66.392686  1.37794507E-02  4.10013454E-02
         7   13            66.945357  1.33109072E-01  4.02694022E-01
         7   15            66.945357  1.33109165E-01  4.02694301E-01
         7   17            66.808717  1.93359409E-01  5.82560817E-01
         8   10            66.392683  1.37793619E-02  4.10010774E-02
         8   12            66.392686  1.37794507E-02  4.10013454E-02
         8   14            66.945357  1.33109072E-01  4.02694022E-01
         8   16            66.945357  1.33109165E-01  4.02694301E-01
         8   18            66.808717  1.93359409E-01  5.82560817E-01
         9   13      --------------- below threshold  7.30652782E-04
         9   15      --------------- below threshold  3.66488126E-03
         9   17      --------------- below threshold  3.11759909E-03
        10   14      --------------- below threshold  7.30652782E-04
        10   16      --------------- below threshold  3.66488126E-03
        10   18      --------------- below threshold  3.11759909E-03
        11   13      --------------- below threshold  3.66483793E-03
        11   15      --------------- below threshold  7.30662231E-04
        11   17      --------------- below threshold  3.11763798E-03
        12   14      --------------- below threshold  3.66483793E-03
        12   16      --------------- below threshold  7.30662231E-04
        12   18      --------------- below threshold  3.11763798E-03
        13   17      --------------- below threshold  3.81820895E-02
        14   18      --------------- below threshold  3.81820895E-02
        15   17      --------------- below threshold  3.81824659E-02
        16   18      --------------- below threshold  3.81824659E-02
     ---------------------------------------------------------------

 Number of problematic transitions =                    58

--

 Electric-dipole - electric-octupole not included
++ I/O STATISTICS
 
  I. General I/O information
  - - - - - - - - - - - - - - - - - - - - - - - - - - - - - - - - - - - - - - - - - - -
  Unit  Name          Flsize      Write/Read            MBytes           Write/Read
                      (MBytes)       Calls              In/Out           Time, sec.
  - - - - - - - - - - - - - - - - - - - - - - - - - - - - - - - - - - - - - - - - - - -
   1  SCRATCH           0.00 .       9/      45 .      0.0/      0.0 .       0/       0
   2  ANNI              0.00 .       0/       0 .      0.0/      0.0 .       0/       0
   3  RUNFILE          14.67 .     322/   10031 .      2.3/     72.7 .       0/       0
   4  ONEINT            5.14 .       0/   22237 .      0.0/   3722.5 .       0/       0
   5  JOBIPH            5.92 .       0/      92 .      0.0/      0.7 .       0/       0
   6  ORDINT          403.03 .       1/    3225 .      0.0/    806.0 .       0/       0
  - - - - - - - - - - - - - - - - - - - - - - - - - - - - - - - - - - - - - - - - - - -
   *  TOTAL           428.76 .     332/   35630 .      2.3/   4602.0 .       0/       0
  - - - - - - - - - - - - - - - - - - - - - - - - - - - - - - - - - - - - - - - - - - -
 
  II. I/O Access Patterns
  - - - - - - - - - - - - - - - - - - - -
  Unit  Name               % of random
                         Write/Read calls
  - - - - - - - - - - - - - - - - - - - -
   1  SCRATCH             88.9/ 100.0
   2  ANNI                 0.0/   0.0
   3  RUNFILE             28.6/  10.8
   4  ONEINT               0.0/  17.4
   5  JOBIPH               0.0/  76.1
   6  ORDINT             100.0/   0.1
  - - - - - - - - - - - - - - - - - - - -
--
--- Stop Module: rassi at Thu Jan  9 20:16:13 2025 /rc=_RC_ALL_IS_WELL_ ---
*** files: xmldump
    saved to directory /home4/s4752295/Internship/Initial_simulations/Point_charge_model/1_electron/active_space_9_non_rel/Nb/varying_bond_length
--- Module rassi spent 4 seconds ---

.##################.
.# Happy landing! #.
.##################.

    Timing: Wall=47.01 User=35.92 System=7.08

###############################################################################
Hbrk Cluster
Job 14548081 for user s4752295
Finished at: Thu Jan  9 20:16:13 CET 2025

Job details:
============

Job ID                         : 14548081
Name                           : Nb_no_c_light
User                           : s4752295
Partition                      : regularmedium
Nodes                          : node101
Number of Nodes                : 1
Cores                          : 1
Number of Tasks                : 1
State                          : RUNNING  
Submit                         : 2025-01-09T20:15:19
Start                          : 2025-01-09T20:15:20
End                            : --
Reserved walltime              : 15:00:00
Used walltime                  : 00:00:53
Used CPU time                  : 00:00:44 (Efficiency: 82.67%)
% User (Computation)           : 83.42%
% System (I/O)                 : 16.58%
Total memory reserved          : 25000M
Maximum memory used            : 1.62G

Acknowledgements:
=================

Please see this page for information about acknowledging Hbrk in your publications:

https://wiki.hpc.rug.nl/habrok/introduction/scientific_output

################################################################################
