   This run of MOLCAS is using the pymolcas driver

                             OPE
                             OPE          NMOL  CASOP  ENMOLC A   SO
                 OPE        NMOLC        AS  OP EN  MO LC     AS  OP
                OPENM       OL CA        SO  PE NM  OL CA     SOP EN
                OP EN      MO   LC       AS  OP ENMOL  CASO   PENMOL
                OP  EN     MO   LC       AS  OP EN     MO     LC ASO
               OP   E  NMOL  C  AS       OP  EN MO     LC     AS  OP
               OP  E   NMO   LC AS        OPEN  MO     LCASOP EN   M
               O  PEN   MO  LCA  SO
            OPE   NMO   L   CAS    OP
        OPENMOL  CASOP     ENMOL   CASOPE
     OPENMOLCA   SOPENMOLCASOPEN   MOLCASOPE
    OPENMOLCAS   OP           EN   MOL    CAS
    OPENMOLCAS       OP  ENM        O     LCA
    OPENMOLCAS    OPEN  MOLCASO     P  E  NMO
    OPENMOLCAS     OP               E  N  MOL
    OPENMOLCA   SO           PENM   O  L  CAS    OPEN    MO    LCAS
    OPENMOLCA   SOP           ENM   O  L  CAS   OP  EN  MOLC  AS   O
    OPENMOLCA   SOPE           NM      O  LCA   S      OP  EN MO
    OPENMOLC                AS         O  PEN   M      OL  CA  SOPE
    OPENMO        LCASOPE  NMOL        C  ASO   P      ENMOLC     AS
    OPE     NMO      LCA  SO     P     E   NM   OL  CA SO  PE N   MO
          OPENMOLCA            SOPE   NMO        LCAS  O    P  ENMO
     OPENMOLCASOPENMOLCASOPENMOLCASOPENMOLCA
        OPENMOLCASOPENMOLCASOPENMOLCASOPE
            OPENMOLCASOPENMOLCASOPENM
               OPENMOLCASOPENMOLCA        version: o91e1abe7de707b ?
                   OPENMOLCASO
                       OPE                tag:

 OpenMolcas is free software; you can redistribute it and/or modify it
 under the terms of the GNU Lesser General Public License version 2.1.
 OpenMolcas is distributed in the hope that it will be useful, but it
 is provided "as is" and without any express or implied warranties.
 For more details see the full text of the license in the file
 LICENSE or in <http://www.gnu.org/licenses/>.

                 Copyright (C) The OpenMolcas Authors
           For the author list and the recommended citation,
                   consult the file CONTRIBUTORS.md

           *************************************************
           * pymolcas version py2.10                       *
           *   build 3068ae8b88c9345ec6cfef6fef7f1169      *
           *   (after the EMIL interpreter by V. Veryazov) *
           *************************************************

configuration info
------------------
Host name: login1 (Linux)
C Compiler ID: GNU
C flags: -std=gnu99
Fortran Compiler ID: GNU
Fortran flags: -fno-aggressive-loop-optimizations -cpp -fdefault-integer-8 -fmax-stack-var-size=1048576
Definitions: _MOLCAS_;_I8_;_LINUX_;_MKL_
Parallel: OFF (GA=OFF)


   ----------------------------------------------------------------------------------------------------------------------------------------------
  |
  |           Project: niobium_so_cf
  |    Submitted from: /home4/s4752295/Internship/Initial_simulations/Point_charge_model/1_electron/active_space_9_non_rel/Nb/varying_bond_length
  |      Scratch area: /tmp/niobium_so_cf
  |   Save outputs to: /home4/s4752295/Internship/Initial_simulations/Point_charge_model/1_electron/active_space_9_non_rel/Nb/varying_bond_length
  |            Molcas: /home4/s4752295/Internship/Molcas/recomp_try/OpenMolcas-master/build
  |
  | Scratch area is empty
  |
  |    MOLCAS_DRIVER = /home4/s4752295/Internship/Molcas/bin/pymolcas
  |    MOLCAS_NPROCS = 1
  |    MOLCAS_SOURCE = /home4/s4752295/Internship/Molcas/recomp_try/OpenMolcas-master
  | MOLCAS_STRUCTURE = 0
  |
   ----------------------------------------------------------------------------------------------------------------------------------------------

++ ---------   Input file   ---------

&SEWARD
AMFi

CLIG
$R

Basis Set
Nb.ANO-rcc.Roos.21s18p13d6f4g2h.10s9p8d5f4g2h.
Spherical d
Nb            0.0       0.0     0.0
End of Basis

Xfield

4
0.000000,  0.000,  1.512        -1.0
1.309430,  0.000, -0.756        -1.0
-0.654715,  1.134, -0.756       -1.0
-0.654715, -1.134, -0.756       -1.0

End of input

&SCF
Occupied
18
Iterations
   50  100
End of Input

&RASSCF
LumOrb
Symmetry
1
Spin
2
Nactel
1 0 0
CIRoot
9 9 1
inactive
18
ras2
9
Alter
4
1 19 24
1 20 25
1 21 26
1 22 27
End of Input

>>> COPY niobium_so_cf.JobIph $SLURM_SUBMIT_DIR/niobium_so_cf.doublet.JobIph

>>> COPY $SLURM_SUBMIT_DIR/niobium_so_cf.doublet.JobIph ./JOB002

&RASSI
NROFJobIph
1 All
SpinOrbit
End of Input

EOF

-- ----------------------------------

--- Start Module: seward at Fri Jan 10 02:23:57 2025 ---

()()()()()()()()()()()()()()()()()()()()()()()()()()()()()()()()()()()()()()()()()()()()()()()()()()

                                              &SEWARD

                                   only a single process is used
                       available to each process: 4.1 GB of memory, 1 thread?
                                            pid: 1094163
()()()()()()()()()()()()()()()()()()()()()()()()()()()()()()()()()()()()()()()()()()()()()()()()()()

 The speed of LIGHT in this CALCULATION =   137.03599917700001     
               SEWARD will generate:
                  Multipole Moment integrals up to order  2
                  Kinetic Energy integrals
                  Nuclear Attraction integrals (point charge)
                  One-Electron Hamiltonian integrals
                  Velocity integrals
                  Relativistic Douglas-Kroll-Hess integrals:
                    - Parametrization         : EXP
                    - DKH order of Hamiltonian: 2
                    - DKH order of Properties : 0
                         - multipole moment operators
                         - electric potential operators
                         - contact operators
                  External field from     4 point(s) added to the one-electron Hamiltonian
                  Orbital angular momentum around ( 0.0000  0.0000  0.0000 )
                  Velocity quadrupole around ( 0.0000  0.0000  0.0000 )
                  Atomic mean-field integrals
                  Two-Electron Repulsion integrals

                   Integrals are discarded if absolute value <: 0.10E-13
                   Integral cutoff threshold is set to       <: 0.10E-15

++    Symmetry information:
      ---------------------

                    Character Table for C1 

                             E  
                    a        1  x, y, xy, Rz, z, xz, Ry, yz, Rx, I
--


++    Basis set information:
      ----------------------


      Basis set label: NB.ANO-RCC.ROOS.21S18P13D6F4G2H.10S9P8D5F4G2H......

      Electronic valence basis set:
      ------------------
      Associated Effective Charge  41.000000 au
      Associated Actual Charge     41.000000 au
      Nuclear Model: Point charge

      Shell  nPrim  nBasis  Cartesian Spherical Contaminant
         s      21      10        X                  
         p      18       9        X                  
         d      13       8                 X         
         f       6       5                 X         
         g       4       4                 X         
         h       2       2                 X         
--


++    Molecular structure info:
      -------------------------

                    ************************************************ 
                    **** Cartesian Coordinates / Bohr, Angstrom **** 
                    ************************************************ 

     Center  Label                x              y              z                     x              y              z
        1      NB               0.000000       0.000000       0.000000              0.000000       0.000000       0.000000
--


++    Operator info:
      --------------


  Net charge from external field:   -4.0000000000000000     
--


            Nuclear Potential Energy              0.00000000 au

                    Nuclear-External Field Potential Energy    -108.46561803 au
                    External Field Potential Energy               2.46828782 au 


            Total Nuclear Potential Energy           -108.46561803 au


      Basis set specifications :
      Symmetry species         a  
      Basis functions          170

 Sorry, Molden does not know how to handle
 functions with angular momentum larger than g
Note: The following floating-point exceptions are signalling: IEEE_UNDERFLOW_FLAG IEEE_DENORMAL
--- Stop Module: seward at Fri Jan 10 02:24:05 2025 /rc=_RC_ALL_IS_WELL_ ---
*** files: niobium_so_cf.GssOrb xmldump
    saved to directory /home4/s4752295/Internship/Initial_simulations/Point_charge_model/1_electron/active_space_9_non_rel/Nb/varying_bond_length
--- Module seward spent 8 seconds ---

*** symbolic link created: INPORB -> niobium_so_cf.GssOrb
--- Start Module: scf at Fri Jan 10 02:24:05 2025 ---

()()()()()()()()()()()()()()()()()()()()()()()()()()()()()()()()()()()()()()()()()()()()()()()()()()

                                                &SCF

                                   only a single process is used
                       available to each process: 4.1 GB of memory, 1 thread?
                                            pid: 1094187
()()()()()()()()()()()()()()()()()()()()()()()()()()()()()()()()()()()()()()()()()()()()()()()()()()

++    Input section:
      --------------

      Header of the integral files:
      
       Integrals generated by seward 4.2.0  , Fri Jan 10 02:23:57 2025


      Cartesian coordinates in Angstrom:
      -----------------------------------------------------
      No.  Label        X            Y            Z        
      -----------------------------------------------------
       1   NB         0.00000000   0.00000000   0.00000000
      -----------------------------------------------------
      Nuclear repulsion energy = -108.46561803
--

++    Orbital specifications:
      -----------------------

      Symmetry species               1
                                     a
      Frozen orbitals                0
      Occupied orbitals             18
      Secondary orbitals           152
      Deleted orbitals               0
      Total number of orbitals     170
      Number of basis functions    170
--

      Molecular charge                           5.000

++    Optimization specifications:
      ----------------------------

      SCF Algorithm: Conventional
      Minimized density differences are used
      Number of density matrices in core                5
      Maximum number of NDDO SCF iterations            50
      Maximum number of HF SCF iterations             100
      Threshold for SCF energy change            0.10E-08
      Threshold for density matrix               0.10E-03
      Threshold for Fock matrix                  0.15E-03
      Threshold for linear dependence            0.10E-08
      Threshold at which DIIS is turned on       0.15E+00
      Threshold at which QNR/C2DIIS is turned on 0.75E-01
      Threshold for Norm(delta) (QNR/C2DIIS)     0.20E-04
      DIIS extrapolation of the SCF procedure
      All orbitals punched on: SCFORB
--

      Detected guessorb starting orbitals                                             


++ Convergence information
                                   SCF        iterations: Energy and convergence statistics

Iter     Tot. SCF        One-elec.       Two-elec.     Energy      Max Dij or  Max Fij      DNorm      TNorm      AccCon     Time
         Energy          Energy          Energy        Change      Delta Norm                                                in Sec.

 The total and one-electron energies are shifted by a value of      3000. a.u.

   1  -826.112424131 -2073.051242154  1355.404436053   0.00E+00    0.14E+00*   0.21E+00*    0.85E+01   0.49E+03   None         1.
   2  -826.494551570 -2074.665850509  1356.636916969  -0.38E+00*   0.57E-01*   0.55E-01*    0.89E+00   0.49E+03   EDIIS        1.
   3  -826.511603392 -2073.278166648  1355.232181285  -0.17E-01*   0.13E-01*   0.13E-01*    0.18E+00   0.49E+03   EDIIS        1.
   4  -826.513189862 -2073.791114065  1355.743542233  -0.16E-02*   0.51E-02*   0.56E-02*    0.36E-01   0.49E+03   c2DIIS       1.
   5  -826.513368015 -2073.495465328  1355.447715343  -0.18E-03*   0.15E-02*   0.22E-02*    0.59E-02   0.49E+03   QNRc2DIIS    0.
   6  -826.513383417 -2073.660852981  1355.613087593  -0.15E-04*   0.50E-03*   0.98E-03*    0.14E-02   0.49E+03   QNRc2DIIS    1.
   7  -826.513386031 -2073.612623745  1355.564855744  -0.26E-05*   0.18E-03*   0.12E-03     0.90E-04   0.49E+03   QNRc2DIIS    1.
   8  -826.513386124 -2073.608607825  1355.560839731  -0.93E-07*   0.11E-04    0.11E-04     0.11E-04   0.49E+03   QNRc2DIIS    0.
   9  -826.513386125 -2073.608606485  1355.560838390  -0.70E-09    0.29E-06    0.24E-06     0.32E-03   0.49E+03   QNRc2DIIS    1.

       Convergence after  9 Macro Iterations
--

 *****************************************************************************************************************************
 *                                                                                                                           *
 *                                             SCF/KS-DFT Program, Final results                                             *
 *                                                                                                                           *
 *                                                                                                                           *
 *                                                                                                                           *
 *                                                       Final Results                                                       *
 *                                                                                                                           *
 *****************************************************************************************************************************

::    Total SCF energy                              -3826.5133861247
      One-electron energy                           -5073.6086064850
      Two-electron energy                            1355.5608383900
      Nuclear repulsion energy                       -108.4656180296
      Kinetic energy (interpolated)                  4194.1972437960
      Virial theorem                                    0.9123351058
      Total spin, S(S+1)                                0.0000000000
      Total spin, S                                     0.0000000000
      Max non-diagonal density matrix element           0.0000002228
      Max non-diagonal Fock matrix element              0.0000000620


      All orbitals with orbital energies smaller than  E(LUMO)+0.5 are printed

++    Molecular orbitals:
      -------------------

      Title: SCF orbitals

      Molecular orbitals for symmetry species 1: a  

          Orbital            1         2         3         4         5         6         7         8         9        10    
          Energy         -701.3565 -100.9182  -89.9369  -89.9369  -89.9356  -18.0358  -14.3379  -14.3379  -14.3227   -8.2747
          Occ. No.          2.0000    2.0000    2.0000    2.0000    2.0000    2.0000    2.0000    2.0000    2.0000    2.0000

        1 NB     1s         1.0000    0.0000    0.0000   -0.0000   -0.0000    0.0000    0.0000    0.0000    0.0000   -0.0000
        2 NB     2s        -0.0000    1.0000    0.0000    0.0000   -0.0004    0.0001    0.0000    0.0000   -0.0000   -0.0000
        3 NB     3s        -0.0000   -0.0001   -0.0000   -0.0000    0.0000    1.0000   -0.0000    0.0000   -0.0050   -0.0000
        4 NB     4s         0.0000    0.0000   -0.0000    0.0000   -0.0000   -0.0020    0.0000   -0.0000    0.0009    0.0000
        5 NB     5s        -0.0000   -0.0000    0.0000   -0.0000    0.0000    0.0003   -0.0000    0.0000   -0.0001   -0.0000
        6 NB     6s         0.0000    0.0000   -0.0000    0.0000   -0.0000   -0.0004    0.0000   -0.0000    0.0002    0.0000
        7 NB     7s        -0.0000   -0.0000    0.0000   -0.0000    0.0000    0.0008   -0.0000    0.0000   -0.0003    0.0000
        8 NB     8s         0.0000    0.0000    0.0000    0.0000   -0.0000   -0.0005   -0.0000   -0.0000    0.0002   -0.0000
        9 NB     9s        -0.0000   -0.0000   -0.0000   -0.0000    0.0000    0.0004    0.0000   -0.0000   -0.0001    0.0000
       10 NB    10s         0.0000    0.0000   -0.0000    0.0000   -0.0000   -0.0002    0.0000    0.0000    0.0000    0.0000
       11 NB     2px       -0.0000   -0.0000   -0.0013    1.0000   -0.0000    0.0000   -0.0000    0.0001   -0.0000   -0.0000
       12 NB     3px        0.0000   -0.0000    0.0000   -0.0001    0.0000   -0.0000   -0.0002    1.0000   -0.0000    0.0004
       13 NB     4px       -0.0000    0.0000   -0.0000    0.0001   -0.0000   -0.0000    0.0000   -0.0022    0.0000   -0.0012
       14 NB     5px        0.0000   -0.0000    0.0000   -0.0000    0.0000    0.0000   -0.0000    0.0005   -0.0000    0.0002
       15 NB     6px       -0.0000    0.0000   -0.0000    0.0000   -0.0000   -0.0000    0.0000   -0.0010    0.0000   -0.0002
       16 NB     7px        0.0000   -0.0000    0.0000   -0.0000    0.0000    0.0000   -0.0000    0.0006   -0.0000   -0.0001
       17 NB     8px       -0.0000    0.0000   -0.0000    0.0000   -0.0000   -0.0000    0.0000   -0.0004    0.0000    0.0002
       18 NB     9px        0.0000   -0.0000    0.0000   -0.0000    0.0000    0.0000   -0.0000    0.0003   -0.0000   -0.0001
       19 NB    10px       -0.0000    0.0000   -0.0000    0.0000   -0.0000   -0.0000    0.0000   -0.0002    0.0000   -0.0000
       20 NB     2py        0.0000    0.0000    1.0000    0.0013    0.0000    0.0000    0.0001    0.0000   -0.0000    0.0000
       21 NB     3py       -0.0000   -0.0000   -0.0001   -0.0000   -0.0000    0.0000    1.0000    0.0002    0.0000   -0.0000
       22 NB     4py        0.0000    0.0000    0.0001    0.0000    0.0000   -0.0000   -0.0022   -0.0000   -0.0000    0.0000
       23 NB     5py       -0.0000   -0.0000   -0.0000   -0.0000   -0.0000    0.0000    0.0005    0.0000    0.0000   -0.0000
       24 NB     6py        0.0000    0.0000    0.0000    0.0000    0.0000   -0.0000   -0.0010   -0.0000   -0.0000    0.0000
       25 NB     7py       -0.0000   -0.0000   -0.0000   -0.0000   -0.0000    0.0000    0.0006    0.0000    0.0000    0.0000
       26 NB     8py        0.0000    0.0000    0.0000    0.0000    0.0000   -0.0000   -0.0004   -0.0000    0.0000   -0.0000
       27 NB     9py       -0.0000   -0.0000   -0.0000   -0.0000   -0.0000    0.0000    0.0003    0.0000    0.0000    0.0000
       28 NB    10py        0.0000    0.0000    0.0000    0.0000    0.0000   -0.0000   -0.0002   -0.0000    0.0000    0.0000
       29 NB     2pz        0.0000    0.0004   -0.0000    0.0000    1.0000   -0.0000   -0.0000    0.0000    0.0002    0.0000
       30 NB     3pz       -0.0000    0.0000    0.0000   -0.0000   -0.0002    0.0050   -0.0000    0.0000    1.0000    0.0000
       31 NB     4pz        0.0000   -0.0000   -0.0000    0.0000    0.0001    0.0005    0.0000   -0.0000   -0.0032   -0.0000
       32 NB     5pz       -0.0000    0.0000    0.0000   -0.0000   -0.0000   -0.0001   -0.0000    0.0000    0.0008    0.0000
       33 NB     6pz        0.0000   -0.0000   -0.0000    0.0000    0.0000    0.0002    0.0000   -0.0000   -0.0015    0.0000
       34 NB     7pz       -0.0000    0.0000    0.0000   -0.0000   -0.0000   -0.0002   -0.0000    0.0000    0.0009   -0.0000
       35 NB     8pz        0.0000   -0.0000   -0.0000    0.0000    0.0000    0.0001    0.0000   -0.0000   -0.0006    0.0000
       36 NB     9pz       -0.0000    0.0000    0.0000   -0.0000   -0.0000   -0.0001   -0.0000    0.0000    0.0003   -0.0000
       37 NB    10pz        0.0000   -0.0000   -0.0000    0.0000    0.0000    0.0000    0.0000   -0.0000   -0.0002    0.0000
       38 NB     3d2-      -0.0000   -0.0000   -0.0000   -0.0000   -0.0000   -0.0000    0.0015    0.0000    0.0000    0.0000
       39 NB     4d2-       0.0000    0.0000   -0.0000   -0.0000   -0.0000    0.0000    0.0005    0.0000    0.0000   -0.0000
       40 NB     5d2-      -0.0000   -0.0000    0.0000    0.0000    0.0000   -0.0000   -0.0004   -0.0000   -0.0000    0.0000
       41 NB     6d2-       0.0000    0.0000   -0.0000   -0.0000   -0.0000    0.0000    0.0003    0.0000    0.0000   -0.0000
       42 NB     7d2-      -0.0000   -0.0000    0.0000    0.0000    0.0000   -0.0000   -0.0002   -0.0000   -0.0000    0.0000
       43 NB     8d2-       0.0000   -0.0000    0.0000    0.0000    0.0000    0.0000    0.0000    0.0000   -0.0000   -0.0000
       44 NB     9d2-      -0.0000    0.0000   -0.0000   -0.0000   -0.0000   -0.0000    0.0001    0.0000    0.0000    0.0000
       45 NB    10d2-      -0.0000    0.0000   -0.0000   -0.0000   -0.0000   -0.0000    0.0001    0.0000   -0.0000    0.0000
       46 NB     3d1-       0.0000    0.0000    0.0000    0.0000    0.0000    0.0000    0.0040    0.0000    0.0000   -0.0000
       47 NB     4d1-       0.0000    0.0000   -0.0000   -0.0000   -0.0000    0.0000    0.0007    0.0000    0.0000   -0.0000
       48 NB     5d1-      -0.0000   -0.0000    0.0000    0.0000    0.0000   -0.0000   -0.0006   -0.0000   -0.0000    0.0000
       49 NB     6d1-       0.0000    0.0000   -0.0000   -0.0000   -0.0000    0.0000    0.0004    0.0000    0.0000    0.0000
       50 NB     7d1-       0.0000    0.0000    0.0000    0.0000    0.0000   -0.0000   -0.0003   -0.0000   -0.0000   -0.0000
       51 NB     8d1-      -0.0000   -0.0000   -0.0000   -0.0000   -0.0000    0.0000    0.0002    0.0000    0.0000    0.0000
       52 NB     9d1-       0.0000    0.0000    0.0000    0.0000    0.0000   -0.0000   -0.0001   -0.0000   -0.0000   -0.0000
       53 NB    10d1-       0.0000    0.0000    0.0000    0.0000    0.0000    0.0000   -0.0000   -0.0000   -0.0000   -0.0000
       54 NB     3d0       -0.0000   -0.0000   -0.0000    0.0000    0.0000   -0.0012   -0.0000    0.0000    0.0004    0.0000
       55 NB     4d0        0.0000    0.0000   -0.0000    0.0000    0.0000   -0.0002    0.0000   -0.0000   -0.0005   -0.0000
       56 NB     5d0       -0.0000   -0.0000   -0.0000    0.0000    0.0000    0.0002   -0.0000    0.0000    0.0004    0.0000
       57 NB     6d0        0.0000    0.0000    0.0000   -0.0000   -0.0000   -0.0002    0.0000   -0.0000   -0.0002   -0.0000
       58 NB     7d0       -0.0000   -0.0000   -0.0000    0.0000    0.0000    0.0002    0.0000   -0.0000    0.0001    0.0000
       59 NB     8d0        0.0000    0.0000    0.0000   -0.0000   -0.0000   -0.0002   -0.0000    0.0000    0.0002    0.0000
       60 NB     9d0       -0.0000   -0.0000   -0.0000    0.0000    0.0000    0.0001    0.0000   -0.0000   -0.0002   -0.0000
       61 NB    10d0       -0.0000   -0.0000   -0.0000    0.0000    0.0000    0.0001    0.0000   -0.0000   -0.0002    0.0000
       62 NB     3d1+       0.0000    0.0000   -0.0000    0.0000   -0.0000    0.0000   -0.0000    0.0040   -0.0000    0.2737
       63 NB     4d1+       0.0000   -0.0000    0.0000   -0.0000    0.0000    0.0000   -0.0000    0.0007   -0.0000    0.0001
       64 NB     5d1+      -0.0000    0.0000   -0.0000    0.0000   -0.0000   -0.0000    0.0000   -0.0006    0.0000   -0.0000
       65 NB     6d1+       0.0000   -0.0000    0.0000   -0.0000    0.0000    0.0000   -0.0000    0.0004   -0.0000   -0.0000
       66 NB     7d1+      -0.0000    0.0000   -0.0000    0.0000   -0.0000   -0.0000    0.0000   -0.0003    0.0000    0.0001
       67 NB     8d1+       0.0000   -0.0000    0.0000   -0.0000    0.0000    0.0000   -0.0000    0.0002   -0.0000   -0.0002
       68 NB     9d1+       0.0000    0.0000   -0.0000    0.0000   -0.0000   -0.0000    0.0000   -0.0001    0.0000    0.0002
       69 NB    10d1+       0.0000   -0.0000   -0.0000    0.0000   -0.0000   -0.0000    0.0000   -0.0000    0.0000    0.0001
       70 NB     3d2+       0.0000   -0.0000   -0.0000    0.0000    0.0000   -0.0000    0.0000   -0.0015    0.0000    0.9618
       71 NB     4d2+      -0.0000   -0.0000   -0.0000    0.0000   -0.0000    0.0000    0.0000   -0.0005    0.0000   -0.0021
       72 NB     5d2+       0.0000   -0.0000    0.0000   -0.0000    0.0000   -0.0000   -0.0000    0.0004   -0.0000    0.0017
       73 NB     6d2+      -0.0000    0.0000   -0.0000    0.0000   -0.0000   -0.0000    0.0000   -0.0003    0.0000   -0.0012
       74 NB     7d2+       0.0000   -0.0000    0.0000   -0.0000    0.0000    0.0000   -0.0000    0.0002   -0.0000    0.0009
       75 NB     8d2+      -0.0000    0.0000    0.0000   -0.0000    0.0000   -0.0000    0.0000   -0.0000    0.0000   -0.0007
       76 NB     9d2+       0.0000   -0.0000   -0.0000    0.0000   -0.0000    0.0000    0.0000   -0.0001   -0.0000    0.0004
       77 NB    10d2+       0.0000    0.0000   -0.0000    0.0000   -0.0000    0.0000    0.0000   -0.0001    0.0000    0.0005
       78 NB     4f3-      -0.0000    0.0000    0.0000    0.0000    0.0000    0.0000    0.0000    0.0000   -0.0000   -0.0000
       79 NB     5f3-       0.0000    0.0000    0.0000    0.0000    0.0000    0.0000    0.0000    0.0000   -0.0000   -0.0000
       80 NB     6f3-      -0.0000   -0.0000   -0.0000   -0.0000   -0.0000   -0.0000   -0.0000   -0.0000    0.0000    0.0000
       81 NB     7f3-       0.0000    0.0000    0.0000    0.0000   -0.0000    0.0000    0.0000    0.0000    0.0000   -0.0000
       82 NB     8f3-      -0.0000   -0.0000    0.0000    0.0000   -0.0000    0.0000    0.0000    0.0000    0.0000   -0.0000
       83 NB     4f2-      -0.0000   -0.0000   -0.0000   -0.0000   -0.0000   -0.0000   -0.0004   -0.0000   -0.0000    0.0000
       84 NB     5f2-      -0.0000    0.0000   -0.0000   -0.0000   -0.0000    0.0000   -0.0004   -0.0000   -0.0000    0.0000
       85 NB     6f2-       0.0000   -0.0000    0.0000    0.0000    0.0000   -0.0000    0.0002    0.0000    0.0000   -0.0000
       86 NB     7f2-      -0.0000    0.0000   -0.0000   -0.0000   -0.0000    0.0000   -0.0001   -0.0000   -0.0000    0.0000
       87 NB     8f2-      -0.0000    0.0000   -0.0000   -0.0000   -0.0000   -0.0000   -0.0000   -0.0000   -0.0000    0.0000
       88 NB     4f1-      -0.0000   -0.0000   -0.0000   -0.0000   -0.0000   -0.0000   -0.0003   -0.0000   -0.0000   -0.0000
       89 NB     5f1-      -0.0000   -0.0000   -0.0000   -0.0000   -0.0000   -0.0000   -0.0003   -0.0000   -0.0000   -0.0000
       90 NB     6f1-      -0.0000    0.0000    0.0000    0.0000    0.0000    0.0000    0.0002    0.0000    0.0000    0.0000
       91 NB     7f1-       0.0000   -0.0000   -0.0000   -0.0000   -0.0000   -0.0000   -0.0002   -0.0000   -0.0000   -0.0000
       92 NB     8f1-       0.0000   -0.0000   -0.0000   -0.0000   -0.0000   -0.0000   -0.0001   -0.0000   -0.0000   -0.0000
       93 NB     4f0       -0.0000    0.0000    0.0000   -0.0000   -0.0000   -0.0007    0.0000   -0.0000   -0.0004    0.0000
       94 NB     5f0       -0.0000    0.0000    0.0000   -0.0000   -0.0000   -0.0006    0.0000   -0.0000   -0.0004    0.0000
       95 NB     6f0        0.0000   -0.0000   -0.0000    0.0000    0.0000    0.0004   -0.0000    0.0000    0.0003    0.0000
       96 NB     7f0       -0.0000    0.0000    0.0000   -0.0000   -0.0000   -0.0002    0.0000   -0.0000   -0.0002   -0.0000
       97 NB     8f0        0.0000   -0.0000    0.0000   -0.0000   -0.0000   -0.0001    0.0000   -0.0000   -0.0001   -0.0000
       98 NB     4f1+      -0.0000    0.0000    0.0000   -0.0000    0.0000   -0.0000    0.0000   -0.0003    0.0000    0.0004
       99 NB     5f1+      -0.0000    0.0000    0.0000   -0.0000    0.0000   -0.0000    0.0000   -0.0003    0.0000    0.0003
      100 NB     6f1+       0.0000   -0.0000   -0.0000    0.0000   -0.0000    0.0000   -0.0000    0.0002   -0.0000   -0.0002
      101 NB     7f1+      -0.0000    0.0000    0.0000   -0.0000    0.0000   -0.0000    0.0000   -0.0002    0.0000    0.0001
      102 NB     8f1+       0.0000   -0.0000    0.0000   -0.0000    0.0000   -0.0000    0.0000   -0.0001    0.0000    0.0001
      103 NB     4f2+      -0.0000    0.0000   -0.0000    0.0000   -0.0000    0.0000   -0.0000    0.0004   -0.0000    0.0018
      104 NB     5f2+      -0.0000    0.0000   -0.0000    0.0000   -0.0000    0.0000   -0.0000    0.0004   -0.0000    0.0015
      105 NB     6f2+       0.0000   -0.0000    0.0000   -0.0000    0.0000   -0.0000    0.0000   -0.0002    0.0000   -0.0008
      106 NB     7f2+       0.0000    0.0000   -0.0000    0.0000   -0.0000    0.0000   -0.0000    0.0001   -0.0000    0.0004
      107 NB     8f2+       0.0000    0.0000   -0.0000    0.0000   -0.0000    0.0000   -0.0000    0.0000   -0.0000    0.0002
      108 NB     4f3+      -0.0000    0.0000   -0.0000   -0.0000    0.0000   -0.0005   -0.0000    0.0000    0.0003   -0.0000
      109 NB     5f3+      -0.0000    0.0000   -0.0000   -0.0000    0.0000   -0.0004   -0.0000    0.0000    0.0003   -0.0000
      110 NB     6f3+       0.0000   -0.0000    0.0000    0.0000   -0.0000    0.0003    0.0000   -0.0000   -0.0002    0.0000
      111 NB     7f3+      -0.0000    0.0000   -0.0000   -0.0000    0.0000   -0.0002    0.0000   -0.0000    0.0001   -0.0000
      112 NB     8f3+       0.0000   -0.0000   -0.0000   -0.0000    0.0000   -0.0001    0.0000   -0.0000    0.0000   -0.0000
      113 NB     5g4-      -0.0000   -0.0000    0.0000    0.0000    0.0000   -0.0000   -0.0004   -0.0000   -0.0000    0.0000
      114 NB     6g4-       0.0000    0.0000   -0.0000   -0.0000   -0.0000    0.0000    0.0003    0.0000    0.0000   -0.0000
      115 NB     7g4-       0.0000    0.0000   -0.0000   -0.0000    0.0000   -0.0000   -0.0002   -0.0000   -0.0000   -0.0000
      116 NB     8g4-       0.0000   -0.0000    0.0000    0.0000    0.0000    0.0000    0.0001    0.0000    0.0000    0.0000
      117 NB     5g3-      -0.0000   -0.0000   -0.0000   -0.0000   -0.0000   -0.0000   -0.0000   -0.0000    0.0000    0.0000
      118 NB     6g3-      -0.0000    0.0000    0.0000    0.0000   -0.0000   -0.0000    0.0000    0.0000    0.0000   -0.0000
      119 NB     7g3-       0.0000   -0.0000   -0.0000   -0.0000    0.0000    0.0000   -0.0000   -0.0000    0.0000    0.0000
      120 NB     8g3-      -0.0000   -0.0000    0.0000    0.0000   -0.0000   -0.0000   -0.0000   -0.0000   -0.0000   -0.0000
      121 NB     5g2-       0.0000    0.0000    0.0000    0.0000    0.0000   -0.0000    0.0000    0.0000    0.0000   -0.0000
      122 NB     6g2-      -0.0000   -0.0000   -0.0000   -0.0000   -0.0000    0.0000   -0.0000   -0.0000   -0.0000    0.0000
      123 NB     7g2-      -0.0000    0.0000    0.0000    0.0000    0.0000   -0.0000    0.0000    0.0000    0.0000   -0.0000
      124 NB     8g2-       0.0000   -0.0000   -0.0000   -0.0000   -0.0000    0.0000    0.0000    0.0000    0.0000    0.0000
      125 NB     5g1-      -0.0000   -0.0000    0.0000    0.0000    0.0000    0.0000   -0.0005   -0.0000   -0.0000    0.0000
      126 NB     6g1-       0.0000    0.0000   -0.0000   -0.0000   -0.0000   -0.0000    0.0004    0.0000    0.0000   -0.0000
      127 NB     7g1-       0.0000    0.0000    0.0000    0.0000    0.0000    0.0000   -0.0003   -0.0000   -0.0000    0.0000
      128 NB     8g1-      -0.0000    0.0000    0.0000    0.0000    0.0000    0.0000    0.0001    0.0000    0.0000   -0.0000
      129 NB     5g0       -0.0000    0.0000    0.0000    0.0000    0.0000   -0.0000    0.0000   -0.0000   -0.0008   -0.0000
      130 NB     6g0        0.0000   -0.0000   -0.0000   -0.0000   -0.0000    0.0000   -0.0000    0.0000    0.0006    0.0000
      131 NB     7g0       -0.0000    0.0000    0.0000    0.0000   -0.0000   -0.0000    0.0000   -0.0000   -0.0004   -0.0000
      132 NB     8g0        0.0000   -0.0000   -0.0000    0.0000    0.0000    0.0000   -0.0000    0.0000    0.0002    0.0000
      133 NB     5g1+       0.0000   -0.0000   -0.0000    0.0000    0.0000   -0.0000    0.0000   -0.0005    0.0000   -0.0005
      134 NB     6g1+       0.0000    0.0000    0.0000   -0.0000   -0.0000    0.0000   -0.0000    0.0004   -0.0000    0.0004
      135 NB     7g1+      -0.0000   -0.0000   -0.0000    0.0000    0.0000   -0.0000    0.0000   -0.0003    0.0000   -0.0002
      136 NB     8g1+      -0.0000    0.0000   -0.0000    0.0000   -0.0000    0.0000   -0.0000    0.0001   -0.0000    0.0001
      137 NB     5g2+      -0.0000    0.0000    0.0000   -0.0000    0.0000   -0.0000    0.0000   -0.0000    0.0000   -0.0003
      138 NB     6g2+       0.0000   -0.0000   -0.0000    0.0000   -0.0000    0.0000   -0.0000    0.0000   -0.0000    0.0002
      139 NB     7g2+      -0.0000   -0.0000    0.0000   -0.0000    0.0000   -0.0000    0.0000   -0.0000    0.0000   -0.0002
      140 NB     8g2+       0.0000    0.0000   -0.0000    0.0000   -0.0000    0.0000    0.0000   -0.0000   -0.0000    0.0001
      141 NB     5g3+       0.0000   -0.0000   -0.0000    0.0000    0.0000    0.0003    0.0000   -0.0000   -0.0005    0.0000
      142 NB     6g3+      -0.0000    0.0000    0.0000   -0.0000    0.0000   -0.0003   -0.0000    0.0000    0.0004   -0.0000
      143 NB     7g3+       0.0000    0.0000   -0.0000    0.0000   -0.0000    0.0002    0.0000    0.0000   -0.0002    0.0000
      144 NB     8g3+      -0.0000   -0.0000    0.0000   -0.0000    0.0000   -0.0001    0.0000   -0.0000    0.0001   -0.0000
      145 NB     5g4+      -0.0000    0.0000   -0.0000    0.0000    0.0000   -0.0000    0.0000   -0.0004    0.0000   -0.0000
      146 NB     6g4+       0.0000   -0.0000    0.0000   -0.0000   -0.0000    0.0000   -0.0000    0.0003   -0.0000    0.0000
      147 NB     7g4+      -0.0000   -0.0000    0.0000   -0.0000    0.0000   -0.0000    0.0000   -0.0002    0.0000    0.0000
      148 NB     8g4+       0.0000    0.0000   -0.0000    0.0000   -0.0000    0.0000   -0.0000    0.0001   -0.0000   -0.0000
      149 NB     6h5-       0.0000    0.0000    0.0000    0.0000   -0.0000    0.0000    0.0001    0.0000    0.0000   -0.0000
      150 NB     7h5-      -0.0000   -0.0000   -0.0000   -0.0000    0.0000   -0.0000   -0.0000   -0.0000   -0.0000    0.0000
      151 NB     6h4-       0.0000    0.0000   -0.0000   -0.0000   -0.0000    0.0000    0.0003    0.0000    0.0000    0.0000
      152 NB     7h4-      -0.0000   -0.0000   -0.0000   -0.0000   -0.0000   -0.0000   -0.0002   -0.0000   -0.0000   -0.0000
      153 NB     6h3-      -0.0000   -0.0000    0.0000    0.0000   -0.0000   -0.0000    0.0000    0.0000    0.0000   -0.0000
      154 NB     7h3-       0.0000   -0.0000   -0.0000   -0.0000    0.0000    0.0000   -0.0000   -0.0000    0.0000    0.0000
      155 NB     6h2-       0.0000    0.0000    0.0000    0.0000    0.0000    0.0000    0.0001    0.0000    0.0000   -0.0000
      156 NB     7h2-      -0.0000   -0.0000   -0.0000   -0.0000   -0.0000   -0.0000   -0.0001   -0.0000   -0.0000    0.0000
      157 NB     6h1-       0.0000   -0.0000    0.0000    0.0000    0.0000   -0.0000    0.0001    0.0000    0.0000    0.0000
      158 NB     7h1-      -0.0000    0.0000   -0.0000   -0.0000   -0.0000    0.0000   -0.0001   -0.0000    0.0000   -0.0000
      159 NB     6h0       -0.0000    0.0000    0.0000   -0.0000   -0.0000   -0.0001    0.0000   -0.0000   -0.0002   -0.0000
      160 NB     7h0        0.0000   -0.0000   -0.0000    0.0000    0.0000    0.0000   -0.0000    0.0000    0.0001    0.0000
      161 NB     6h1+       0.0000    0.0000   -0.0000    0.0000   -0.0000    0.0000   -0.0000    0.0001   -0.0000   -0.0001
      162 NB     7h1+      -0.0000   -0.0000    0.0000   -0.0000    0.0000   -0.0000    0.0000   -0.0001    0.0000    0.0001
      163 NB     6h2+       0.0000   -0.0000    0.0000   -0.0000    0.0000    0.0000    0.0000   -0.0001    0.0000   -0.0005
      164 NB     7h2+      -0.0000    0.0000   -0.0000    0.0000   -0.0000   -0.0000   -0.0000    0.0001   -0.0000    0.0003
      165 NB     6h3+      -0.0000    0.0000    0.0000   -0.0000   -0.0000   -0.0001   -0.0000    0.0000    0.0003   -0.0000
      166 NB     7h3+       0.0000   -0.0000   -0.0000    0.0000    0.0000    0.0001    0.0000   -0.0000   -0.0002    0.0000
      167 NB     6h4+       0.0000   -0.0000    0.0000   -0.0000   -0.0000    0.0000   -0.0000    0.0003   -0.0000   -0.0000
      168 NB     7h4+      -0.0000   -0.0000    0.0000   -0.0000    0.0000   -0.0000    0.0000   -0.0002    0.0000    0.0000
      169 NB     6h5+       0.0000   -0.0000    0.0000   -0.0000    0.0000    0.0000    0.0000   -0.0001    0.0000   -0.0007
      170 NB     7h5+      -0.0000    0.0000   -0.0000    0.0000   -0.0000   -0.0000   -0.0000    0.0000   -0.0000    0.0004

          Orbital           11        12        13        14        15        16        17        18        19        20    
          Energy           -8.2747   -8.2630   -8.2630   -8.2597   -2.5093   -1.4746   -1.4746   -1.3313   -0.1579   -0.0966
          Occ. No.          2.0000    2.0000    2.0000    2.0000    2.0000    2.0000    2.0000    2.0000    0.0000    0.0000

        1 NB     1s         0.0000    0.0000    0.0000    0.0000    0.0000    0.0000   -0.0000   -0.0000    0.0000   -0.0000
        2 NB     2s         0.0000    0.0000    0.0000    0.0000    0.0000   -0.0000   -0.0000    0.0000    0.0000    0.0000
        3 NB     3s         0.0000    0.0000   -0.0000    0.0012   -0.0019    0.0000    0.0000   -0.0007   -0.0002   -0.0000
        4 NB     4s        -0.0000   -0.0000    0.0000   -0.0023   -0.9933    0.0000    0.0000   -0.0806   -0.0054   -0.0000
        5 NB     5s         0.0000    0.0000   -0.0000    0.0002   -0.0066    0.0000    0.0000    0.0059    0.9455   -0.0000
        6 NB     6s        -0.0000   -0.0000    0.0000   -0.0002    0.0041   -0.0000   -0.0000   -0.0061    0.2750   -0.0000
        7 NB     7s         0.0000    0.0000   -0.0000    0.0003    0.0048    0.0000    0.0000    0.0107   -0.0161   -0.0000
        8 NB     8s         0.0000    0.0000    0.0000   -0.0000   -0.0111    0.0000    0.0000   -0.0042   -0.0270   -0.0000
        9 NB     9s        -0.0000    0.0000    0.0000   -0.0001    0.0024   -0.0000    0.0000   -0.0005   -0.0053    0.0000
       10 NB    10s        -0.0000    0.0000   -0.0000   -0.0000    0.0009   -0.0000   -0.0000    0.0002   -0.0003    0.0000
       11 NB     2px        0.0000   -0.0000   -0.0000    0.0000    0.0000   -0.0001   -0.0000    0.0000    0.0000    0.0000
       12 NB     3px       -0.0000   -0.0000   -0.0042    0.0000   -0.0000    0.0019    0.0000   -0.0000   -0.0000   -0.0002
       13 NB     4px        0.0000    0.0000    0.0037   -0.0000    0.0000    0.9862    0.0000   -0.0000   -0.0000   -0.0133
       14 NB     5px       -0.0000   -0.0000   -0.0006    0.0000   -0.0000    0.0219    0.0000   -0.0000    0.0000    0.8377
       15 NB     6px        0.0000    0.0000    0.0008   -0.0000    0.0000   -0.0121   -0.0000    0.0000    0.0000    0.3915
       16 NB     7px        0.0000   -0.0000   -0.0001   -0.0000   -0.0000   -0.0118   -0.0000    0.0000    0.0000    0.3278
       17 NB     8px       -0.0000   -0.0000   -0.0003    0.0000   -0.0000    0.0098    0.0000   -0.0000    0.0000    0.1222
       18 NB     9px        0.0000    0.0000    0.0002   -0.0000    0.0000    0.0039    0.0000   -0.0000    0.0000    0.0428
       19 NB    10px        0.0000    0.0000    0.0000   -0.0000    0.0000    0.0002    0.0000    0.0000    0.0000    0.0057
       20 NB     2py        0.0000   -0.0000    0.0000    0.0000   -0.0000    0.0000   -0.0001    0.0000   -0.0000   -0.0000
       21 NB     3py       -0.0004   -0.0042    0.0000   -0.0000    0.0000   -0.0000    0.0019    0.0000    0.0000    0.0000
       22 NB     4py        0.0012    0.0037   -0.0000   -0.0000    0.0000   -0.0000    0.9862    0.0000   -0.0000    0.0000
       23 NB     5py       -0.0002   -0.0006    0.0000   -0.0000    0.0000   -0.0000    0.0219    0.0000   -0.0000   -0.0000
       24 NB     6py        0.0002    0.0008   -0.0000   -0.0000    0.0000    0.0000   -0.0121   -0.0000   -0.0000   -0.0000
       25 NB     7py        0.0001   -0.0001    0.0000    0.0000    0.0000    0.0000   -0.0118   -0.0000   -0.0000   -0.0000
       26 NB     8py       -0.0002   -0.0003    0.0000   -0.0000   -0.0000   -0.0000    0.0098    0.0000   -0.0000   -0.0000
       27 NB     9py        0.0001    0.0002   -0.0000    0.0000   -0.0000   -0.0000    0.0039    0.0000   -0.0000   -0.0000
       28 NB    10py        0.0000    0.0000   -0.0000   -0.0000    0.0000   -0.0000    0.0002   -0.0000    0.0000   -0.0000
       29 NB     2pz        0.0000    0.0000   -0.0000   -0.0000   -0.0000   -0.0000    0.0000   -0.0001    0.0000   -0.0000
       30 NB     3pz       -0.0000   -0.0000    0.0000   -0.0004    0.0007    0.0000   -0.0000    0.0031   -0.0000    0.0000
       31 NB     4pz        0.0000   -0.0000   -0.0000   -0.0022   -0.0778    0.0000    0.0000    0.9878   -0.0100    0.0000
       32 NB     5pz       -0.0000    0.0000    0.0000    0.0003    0.0020    0.0000   -0.0000    0.0321    0.1509   -0.0000
       33 NB     6pz       -0.0000   -0.0000   -0.0000   -0.0001    0.0001    0.0000   -0.0000   -0.0102    0.0414   -0.0000
       34 NB     7pz        0.0000    0.0000    0.0000   -0.0003   -0.0021   -0.0000   -0.0000   -0.0218    0.0288   -0.0000
       35 NB     8pz        0.0000    0.0000    0.0000    0.0005    0.0014    0.0000   -0.0000    0.0143    0.0081   -0.0000
       36 NB     9pz        0.0000    0.0000   -0.0000   -0.0003    0.0003    0.0000   -0.0000    0.0065    0.0020   -0.0000
       37 NB    10pz        0.0000    0.0000   -0.0000    0.0000   -0.0000    0.0000   -0.0000    0.0003    0.0002   -0.0000
       38 NB     3d2-       0.9618    0.2736   -0.0000   -0.0000    0.0000    0.0000   -0.0016   -0.0000   -0.0000   -0.0000
       39 NB     4d2-      -0.0021   -0.0017    0.0000    0.0000    0.0000   -0.0000    0.0810   -0.0000   -0.0000    0.0000
       40 NB     5d2-       0.0017    0.0014   -0.0000   -0.0000   -0.0000    0.0000   -0.0333   -0.0000   -0.0000   -0.0000
       41 NB     6d2-      -0.0012   -0.0009    0.0000    0.0000    0.0000   -0.0000    0.0063   -0.0000    0.0000   -0.0000
       42 NB     7d2-       0.0009    0.0006   -0.0000   -0.0000   -0.0000   -0.0000    0.0034    0.0000    0.0000   -0.0000
       43 NB     8d2-      -0.0007   -0.0003    0.0000    0.0000   -0.0000    0.0000   -0.0061    0.0000    0.0000    0.0000
       44 NB     9d2-       0.0004    0.0001   -0.0000    0.0000   -0.0000   -0.0000    0.0007   -0.0000    0.0000    0.0000
       45 NB    10d2-       0.0005    0.0002   -0.0000   -0.0000   -0.0000    0.0000   -0.0007    0.0000   -0.0000   -0.0000
       46 NB     3d1-      -0.2737    0.9618   -0.0000   -0.0000    0.0000    0.0000   -0.0024   -0.0000   -0.0000   -0.0000
       47 NB     4d1-      -0.0001   -0.0036    0.0000    0.0000    0.0000   -0.0000    0.1178   -0.0000   -0.0000   -0.0000
       48 NB     5d1-       0.0000    0.0029   -0.0000   -0.0000   -0.0000    0.0000   -0.0475   -0.0000   -0.0000   -0.0000
       49 NB     6d1-       0.0000   -0.0021    0.0000    0.0000    0.0000   -0.0000    0.0087    0.0000   -0.0000   -0.0000
       50 NB     7d1-      -0.0001    0.0014   -0.0000   -0.0000   -0.0000   -0.0000    0.0047   -0.0000    0.0000   -0.0000
       51 NB     8d1-       0.0002   -0.0010    0.0000    0.0000   -0.0000    0.0000   -0.0079   -0.0000    0.0000    0.0000
       52 NB     9d1-      -0.0002    0.0005   -0.0000   -0.0000   -0.0000   -0.0000    0.0006   -0.0000    0.0000    0.0000
       53 NB    10d1-      -0.0001    0.0006   -0.0000   -0.0000   -0.0000    0.0000   -0.0007   -0.0000   -0.0000   -0.0000
       54 NB     3d0        0.0000    0.0000    0.0000    1.0000   -0.0022    0.0000    0.0000    0.0013   -0.0003    0.0000
       55 NB     4d0        0.0000   -0.0000   -0.0000   -0.0039    0.0331   -0.0000   -0.0000   -0.0945   -0.0330   -0.0000
       56 NB     5d0        0.0000    0.0000    0.0000    0.0032   -0.0174    0.0000    0.0000    0.0382   -0.0330   -0.0000
       57 NB     6d0       -0.0000   -0.0000   -0.0000   -0.0023    0.0054   -0.0000   -0.0000   -0.0067   -0.0047   -0.0000
       58 NB     7d0        0.0000    0.0000    0.0000    0.0016    0.0004   -0.0000   -0.0000   -0.0045    0.0022   -0.0000
       59 NB     8d0       -0.0000   -0.0000   -0.0000   -0.0010   -0.0036    0.0000    0.0000    0.0077    0.0011    0.0000
       60 NB     9d0       -0.0000    0.0000    0.0000    0.0005    0.0011   -0.0000   -0.0000   -0.0010    0.0012    0.0000
       61 NB    10d0        0.0000    0.0000    0.0000    0.0006   -0.0005    0.0000   -0.0000    0.0010   -0.0003   -0.0000
       62 NB     3d1+      -0.0000    0.0000    0.9618   -0.0000    0.0000   -0.0024   -0.0000    0.0000    0.0000    0.0003
       63 NB     4d1+      -0.0000   -0.0000   -0.0036    0.0000   -0.0000    0.1178    0.0000   -0.0000    0.0000    0.0598
       64 NB     5d1+       0.0000    0.0000    0.0029   -0.0000    0.0000   -0.0475   -0.0000    0.0000    0.0000    0.1048
       65 NB     6d1+       0.0000   -0.0000   -0.0021    0.0000   -0.0000    0.0087    0.0000   -0.0000    0.0000    0.0685
       66 NB     7d1+      -0.0000    0.0000    0.0014   -0.0000    0.0000    0.0047    0.0000    0.0000    0.0000    0.0170
       67 NB     8d1+       0.0000   -0.0000   -0.0010    0.0000    0.0000   -0.0079   -0.0000    0.0000   -0.0000   -0.0053
       68 NB     9d1+      -0.0000    0.0000    0.0005   -0.0000   -0.0000    0.0006    0.0000   -0.0000   -0.0000   -0.0060
       69 NB    10d1+      -0.0000    0.0000    0.0006   -0.0000    0.0000   -0.0007   -0.0000    0.0000    0.0000    0.0012
       70 NB     3d2+      -0.0000   -0.0000   -0.2736    0.0000    0.0000    0.0016    0.0000   -0.0000    0.0000   -0.0001
       71 NB     4d2+       0.0000    0.0000    0.0017   -0.0000   -0.0000   -0.0810   -0.0000    0.0000    0.0000    0.0001
       72 NB     5d2+      -0.0000   -0.0000   -0.0014    0.0000    0.0000    0.0333    0.0000   -0.0000    0.0000   -0.0239
       73 NB     6d2+       0.0000    0.0000    0.0009   -0.0000    0.0000   -0.0063   -0.0000    0.0000    0.0000   -0.0095
       74 NB     7d2+      -0.0000   -0.0000   -0.0006    0.0000   -0.0000   -0.0034   -0.0000   -0.0000   -0.0000   -0.0019
       75 NB     8d2+       0.0000    0.0000    0.0003   -0.0000    0.0000    0.0061    0.0000   -0.0000   -0.0000    0.0005
       76 NB     9d2+      -0.0000   -0.0000   -0.0001    0.0000    0.0000   -0.0007   -0.0000    0.0000   -0.0000    0.0011
       77 NB    10d2+      -0.0000   -0.0000   -0.0002    0.0000    0.0000    0.0007    0.0000   -0.0000    0.0000   -0.0003
       78 NB     4f3-      -0.0000   -0.0000    0.0000   -0.0000    0.0000   -0.0000    0.0000   -0.0000    0.0000   -0.0000
       79 NB     5f3-      -0.0000   -0.0000    0.0000    0.0000   -0.0000   -0.0000    0.0000    0.0000   -0.0000    0.0000
       80 NB     6f3-       0.0000    0.0000   -0.0000    0.0000    0.0000   -0.0000    0.0000    0.0000   -0.0000    0.0000
       81 NB     7f3-      -0.0000   -0.0000   -0.0000   -0.0000   -0.0000    0.0000   -0.0000   -0.0000   -0.0000    0.0000
       82 NB     8f3-      -0.0000   -0.0000    0.0000    0.0000   -0.0000   -0.0000    0.0000   -0.0000    0.0000   -0.0000
       83 NB     4f2-       0.0018    0.0018   -0.0000   -0.0000   -0.0000    0.0000   -0.0242   -0.0000    0.0000    0.0000
       84 NB     5f2-       0.0015    0.0014   -0.0000   -0.0000   -0.0000    0.0000   -0.0089   -0.0000   -0.0000   -0.0000
       85 NB     6f2-      -0.0008   -0.0007    0.0000    0.0000   -0.0000    0.0000   -0.0020   -0.0000    0.0000   -0.0000
       86 NB     7f2-       0.0004    0.0002   -0.0000   -0.0000    0.0000   -0.0000    0.0037    0.0000    0.0000    0.0000
       87 NB     8f2-       0.0002    0.0001   -0.0000   -0.0000    0.0000   -0.0000    0.0009    0.0000    0.0000    0.0000
       88 NB     4f1-      -0.0004    0.0005   -0.0000   -0.0000   -0.0000    0.0000   -0.0178   -0.0000    0.0000    0.0000
       89 NB     5f1-      -0.0003    0.0005   -0.0000   -0.0000   -0.0000    0.0000   -0.0053   -0.0000   -0.0000   -0.0000
       90 NB     6f1-       0.0002   -0.0003    0.0000    0.0000    0.0000    0.0000   -0.0013    0.0000   -0.0000   -0.0000
       91 NB     7f1-      -0.0001    0.0003   -0.0000    0.0000    0.0000   -0.0000    0.0014    0.0000   -0.0000   -0.0000
       92 NB     8f1-      -0.0001    0.0002   -0.0000    0.0000   -0.0000    0.0000   -0.0001   -0.0000   -0.0000    0.0000
       93 NB     4f0       -0.0000   -0.0000   -0.0000   -0.0007    0.0550   -0.0000   -0.0000   -0.0215   -0.0214    0.0000
       94 NB     5f0       -0.0000   -0.0000    0.0000   -0.0005    0.0236   -0.0000   -0.0000   -0.0052    0.0252   -0.0000
       95 NB     6f0       -0.0000   -0.0000   -0.0000    0.0001    0.0017    0.0000   -0.0000   -0.0020    0.0062   -0.0000
       96 NB     7f0        0.0000    0.0000    0.0000    0.0002   -0.0073    0.0000    0.0000    0.0013    0.0018   -0.0000
       97 NB     8f0        0.0000    0.0000    0.0000    0.0003   -0.0020    0.0000   -0.0000   -0.0003   -0.0011    0.0000
       98 NB     4f1+      -0.0000    0.0000    0.0005   -0.0000    0.0000   -0.0178   -0.0000    0.0000   -0.0000   -0.0030
       99 NB     5f1+      -0.0000    0.0000    0.0005   -0.0000    0.0000   -0.0053   -0.0000    0.0000    0.0000    0.0077
      100 NB     6f1+       0.0000   -0.0000   -0.0003    0.0000   -0.0000   -0.0013   -0.0000   -0.0000    0.0000    0.0048
      101 NB     7f1+      -0.0000    0.0000    0.0003   -0.0000   -0.0000    0.0014    0.0000   -0.0000    0.0000    0.0024
      102 NB     8f1+      -0.0000    0.0000    0.0002   -0.0000   -0.0000   -0.0001   -0.0000   -0.0000   -0.0000   -0.0013
      103 NB     4f2+      -0.0000   -0.0000   -0.0018    0.0000    0.0000    0.0242    0.0000    0.0000   -0.0000    0.0000
      104 NB     5f2+      -0.0000   -0.0000   -0.0014    0.0000   -0.0000    0.0089    0.0000   -0.0000    0.0000   -0.0039
      105 NB     6f2+       0.0000    0.0000    0.0007   -0.0000    0.0000    0.0020    0.0000    0.0000    0.0000   -0.0008
      106 NB     7f2+      -0.0000   -0.0000   -0.0002    0.0000   -0.0000   -0.0037   -0.0000    0.0000   -0.0000    0.0002
      107 NB     8f2+      -0.0000   -0.0000   -0.0001    0.0000    0.0000   -0.0009   -0.0000    0.0000   -0.0000    0.0001
      108 NB     4f3+       0.0000    0.0000    0.0000    0.0009    0.0353    0.0000    0.0000    0.0320   -0.0156    0.0000
      109 NB     5f3+       0.0000    0.0000    0.0000    0.0007    0.0152    0.0000    0.0000    0.0106    0.0148   -0.0000
      110 NB     6f3+      -0.0000   -0.0000   -0.0000   -0.0004    0.0011    0.0000   -0.0000    0.0027    0.0032   -0.0000
      111 NB     7f3+       0.0000    0.0000    0.0000    0.0001   -0.0047   -0.0000   -0.0000   -0.0041    0.0011   -0.0000
      112 NB     8f3+       0.0000   -0.0000    0.0000    0.0000   -0.0013    0.0000   -0.0000   -0.0008   -0.0006    0.0000
      113 NB     5g4-       0.0000    0.0006   -0.0000   -0.0000   -0.0000    0.0000   -0.0213   -0.0000    0.0000    0.0000
      114 NB     6g4-      -0.0000   -0.0004    0.0000    0.0000    0.0000   -0.0000    0.0026   -0.0000    0.0000    0.0000
      115 NB     7g4-      -0.0000    0.0002   -0.0000   -0.0000    0.0000   -0.0000    0.0028    0.0000    0.0000    0.0000
      116 NB     8g4-       0.0000   -0.0000    0.0000    0.0000   -0.0000    0.0000   -0.0012   -0.0000    0.0000    0.0000
      117 NB     5g3-       0.0000    0.0000   -0.0000   -0.0000    0.0000    0.0000   -0.0000    0.0000    0.0000    0.0000
      118 NB     6g3-      -0.0000   -0.0000    0.0000   -0.0000   -0.0000   -0.0000    0.0000   -0.0000    0.0000    0.0000
      119 NB     7g3-       0.0000    0.0000    0.0000    0.0000   -0.0000   -0.0000    0.0000   -0.0000   -0.0000    0.0000
      120 NB     8g3-      -0.0000   -0.0000   -0.0000    0.0000    0.0000    0.0000   -0.0000   -0.0000    0.0000    0.0000
      121 NB     5g2-      -0.0003   -0.0006    0.0000    0.0000    0.0000   -0.0000    0.0013    0.0000    0.0000    0.0000
      122 NB     6g2-       0.0002    0.0004   -0.0000   -0.0000   -0.0000    0.0000   -0.0008   -0.0000    0.0000    0.0000
      123 NB     7g2-      -0.0002   -0.0002    0.0000    0.0000    0.0000    0.0000   -0.0002   -0.0000    0.0000    0.0000
      124 NB     8g2-       0.0001    0.0001   -0.0000   -0.0000   -0.0000   -0.0000    0.0006    0.0000    0.0000    0.0000
      125 NB     5g1-       0.0005   -0.0001    0.0000   -0.0000   -0.0000    0.0000   -0.0269   -0.0000    0.0000    0.0000
      126 NB     6g1-      -0.0004    0.0001   -0.0000   -0.0000    0.0000   -0.0000    0.0029   -0.0000    0.0000    0.0000
      127 NB     7g1-       0.0002   -0.0002    0.0000    0.0000    0.0000   -0.0000    0.0035    0.0000    0.0000    0.0000
      128 NB     8g1-      -0.0001    0.0002   -0.0000   -0.0000   -0.0000    0.0000   -0.0013   -0.0000    0.0000    0.0000
      129 NB     5g0       -0.0000   -0.0000   -0.0000   -0.0012    0.0036   -0.0000   -0.0000   -0.0461    0.0004   -0.0000
      130 NB     6g0       -0.0000    0.0000    0.0000    0.0008   -0.0008    0.0000    0.0000    0.0055   -0.0020    0.0000
      131 NB     7g0        0.0000    0.0000   -0.0000   -0.0004   -0.0004    0.0000   -0.0000    0.0063   -0.0007    0.0000
      132 NB     8g0        0.0000    0.0000    0.0000    0.0002    0.0004   -0.0000   -0.0000   -0.0031    0.0001   -0.0000
      133 NB     5g1+       0.0000   -0.0000   -0.0001    0.0000   -0.0000   -0.0269   -0.0000    0.0000    0.0000   -0.0019
      134 NB     6g1+      -0.0000    0.0000    0.0001   -0.0000   -0.0000    0.0029    0.0000   -0.0000    0.0000   -0.0062
      135 NB     7g1+       0.0000   -0.0000   -0.0002    0.0000    0.0000    0.0035    0.0000   -0.0000   -0.0000   -0.0028
      136 NB     8g1+      -0.0000    0.0000    0.0002   -0.0000    0.0000   -0.0013   -0.0000    0.0000   -0.0000   -0.0005
      137 NB     5g2+       0.0000    0.0000    0.0006   -0.0000    0.0000   -0.0013   -0.0000   -0.0000   -0.0000    0.0006
      138 NB     6g2+      -0.0000   -0.0000   -0.0004    0.0000   -0.0000    0.0008    0.0000   -0.0000   -0.0000    0.0004
      139 NB     7g2+       0.0000    0.0000    0.0002   -0.0000    0.0000    0.0002    0.0000    0.0000   -0.0000    0.0004
      140 NB     8g2+      -0.0000   -0.0000   -0.0001    0.0000    0.0000   -0.0006   -0.0000    0.0000   -0.0000    0.0002
      141 NB     5g3+      -0.0000   -0.0000   -0.0000   -0.0003   -0.0207   -0.0000    0.0000   -0.0299    0.0046   -0.0000
      142 NB     6g3+       0.0000    0.0000    0.0000    0.0002    0.0059   -0.0000    0.0000    0.0042    0.0051   -0.0000
      143 NB     7g3+      -0.0000   -0.0000   -0.0000   -0.0001    0.0020    0.0000    0.0000    0.0041   -0.0000   -0.0000
      144 NB     8g3+       0.0000    0.0000    0.0000    0.0000   -0.0029    0.0000   -0.0000   -0.0025   -0.0004   -0.0000
      145 NB     5g4+       0.0000    0.0000    0.0006   -0.0000    0.0000   -0.0213   -0.0000    0.0000   -0.0000   -0.0007
      146 NB     6g4+      -0.0000   -0.0000   -0.0004    0.0000   -0.0000    0.0026    0.0000   -0.0000   -0.0000   -0.0043
      147 NB     7g4+      -0.0000    0.0000    0.0002   -0.0000    0.0000    0.0028    0.0000   -0.0000   -0.0000   -0.0019
      148 NB     8g4+       0.0000   -0.0000   -0.0000   -0.0000    0.0000   -0.0012   -0.0000    0.0000   -0.0000   -0.0003
      149 NB     6h5-      -0.0007   -0.0003    0.0000    0.0000   -0.0000   -0.0000    0.0024    0.0000    0.0000    0.0000
      150 NB     7h5-       0.0004    0.0002   -0.0000   -0.0000    0.0000    0.0000   -0.0004   -0.0000    0.0000   -0.0000
      151 NB     6h4-       0.0000   -0.0008    0.0000    0.0000    0.0000   -0.0000    0.0134    0.0000   -0.0000    0.0000
      152 NB     7h4-      -0.0000    0.0005   -0.0000   -0.0000   -0.0000    0.0000   -0.0003    0.0000   -0.0000   -0.0000
      153 NB     6h3-      -0.0000   -0.0000   -0.0000    0.0000   -0.0000   -0.0000    0.0000    0.0000   -0.0000    0.0000
      154 NB     7h3-       0.0000    0.0000   -0.0000    0.0000    0.0000    0.0000    0.0000    0.0000    0.0000   -0.0000
      155 NB     6h2-      -0.0005   -0.0003    0.0000    0.0000    0.0000   -0.0000    0.0041    0.0000   -0.0000    0.0000
      156 NB     7h2-       0.0003    0.0002   -0.0000   -0.0000   -0.0000    0.0000   -0.0002    0.0000   -0.0000   -0.0000
      157 NB     6h1-       0.0001   -0.0011    0.0000    0.0000    0.0000   -0.0000    0.0024   -0.0000    0.0000    0.0000
      158 NB     7h1-      -0.0001    0.0006   -0.0000   -0.0000    0.0000    0.0000   -0.0006   -0.0000    0.0000    0.0000
      159 NB     6h0       -0.0000   -0.0000   -0.0000   -0.0014    0.0042   -0.0000   -0.0000   -0.0079    0.0003    0.0000
      160 NB     7h0       -0.0000    0.0000    0.0000    0.0008   -0.0008   -0.0000   -0.0000    0.0007   -0.0005    0.0000
      161 NB     6h1+       0.0000   -0.0000   -0.0011    0.0000   -0.0000    0.0024    0.0000   -0.0000    0.0000   -0.0007
      162 NB     7h1+      -0.0000    0.0000    0.0006   -0.0000    0.0000   -0.0006   -0.0000    0.0000    0.0000   -0.0001
      163 NB     6h2+       0.0000    0.0000    0.0003   -0.0000   -0.0000   -0.0041   -0.0000   -0.0000   -0.0000    0.0000
      164 NB     7h2+      -0.0000   -0.0000   -0.0002    0.0000   -0.0000    0.0002    0.0000    0.0000    0.0000   -0.0004
      165 NB     6h3+       0.0000    0.0000    0.0000   -0.0003    0.0065    0.0000   -0.0000    0.0154   -0.0008    0.0000
      166 NB     7h3+      -0.0000   -0.0000   -0.0000    0.0002   -0.0012    0.0000    0.0000   -0.0000   -0.0009   -0.0000
      167 NB     6h4+       0.0000   -0.0000   -0.0008    0.0000   -0.0000    0.0134    0.0000   -0.0000    0.0000   -0.0006
      168 NB     7h4+      -0.0000    0.0000    0.0005   -0.0000    0.0000   -0.0003   -0.0000    0.0000    0.0000    0.0010
      169 NB     6h5+       0.0000    0.0000    0.0003   -0.0000   -0.0000   -0.0024   -0.0000   -0.0000   -0.0000    0.0000
      170 NB     7h5+      -0.0000   -0.0000   -0.0002    0.0000   -0.0000    0.0004    0.0000   -0.0000    0.0000   -0.0002

          Orbital           21        22        23        24        25        26        27        28        29        30    
          Energy           -0.0966   -0.0875   -0.0558   -0.0558   -0.0494   -0.0494   -0.0490   -0.0262    0.0213    0.0213
          Occ. No.          0.0000    0.0000    0.0000    0.0000    0.0000    0.0000    0.0000    0.0000    0.0000    0.0000

        1 NB     1s         0.0000    0.0000    0.0000    0.0000   -0.0000    0.0000   -0.0000   -0.0000    0.0000   -0.0000
        2 NB     2s         0.0000   -0.0000    0.0000    0.0000   -0.0000    0.0000   -0.0000   -0.0000   -0.0000   -0.0000
        3 NB     3s        -0.0000    0.0001   -0.0000   -0.0000    0.0000    0.0000    0.0000    0.0002    0.0000   -0.0000
        4 NB     4s        -0.0000    0.0037   -0.0000   -0.0000    0.0000    0.0000    0.0027    0.0058    0.0000    0.0000
        5 NB     5s        -0.0000   -0.1294   -0.0000   -0.0000    0.0000    0.0000    0.0236   -0.2378    0.0000    0.0000
        6 NB     6s         0.0000   -0.0858   -0.0000   -0.0000    0.0000    0.0000    0.0921    0.8527   -0.0000   -0.0000
        7 NB     7s         0.0000   -0.0150   -0.0000   -0.0000    0.0000    0.0000    0.0282    0.3731   -0.0000   -0.0000
        8 NB     8s         0.0000   -0.0041   -0.0000   -0.0000    0.0000    0.0000    0.0152    0.2210   -0.0000   -0.0000
        9 NB     9s         0.0000   -0.0007   -0.0000   -0.0000    0.0000    0.0000    0.0030    0.0459   -0.0000   -0.0000
       10 NB    10s         0.0000   -0.0001   -0.0000   -0.0000    0.0000    0.0000    0.0002    0.0035   -0.0000   -0.0000
       11 NB     2px        0.0000    0.0000   -0.0000   -0.0000    0.0000    0.0000   -0.0000   -0.0000    0.0000    0.0000
       12 NB     3px       -0.0000    0.0000    0.0000    0.0000   -0.0001   -0.0000    0.0000    0.0000   -0.0000   -0.0000
       13 NB     4px       -0.0000   -0.0000    0.0058    0.0000   -0.0163   -0.0000    0.0000    0.0000   -0.0061   -0.0000
       14 NB     5px        0.0000    0.0000   -0.0237   -0.0000   -0.0982   -0.0000    0.0000   -0.0000   -0.0053   -0.0000
       15 NB     6px        0.0000   -0.0000   -0.0109   -0.0000   -0.0618   -0.0000    0.0000    0.0000    0.0156    0.0000
       16 NB     7px        0.0000    0.0000   -0.0107   -0.0000   -0.0542   -0.0000    0.0000    0.0000    0.0259    0.0000
       17 NB     8px        0.0000    0.0000   -0.0038   -0.0000   -0.0231   -0.0000    0.0000    0.0000    0.0148    0.0000
       18 NB     9px        0.0000   -0.0000   -0.0013   -0.0000   -0.0089   -0.0000    0.0000    0.0000    0.0064    0.0000
       19 NB    10px        0.0000   -0.0000   -0.0002   -0.0000   -0.0012   -0.0000    0.0000    0.0000    0.0010    0.0000
       20 NB     2py        0.0000    0.0000   -0.0000    0.0000   -0.0000    0.0000   -0.0000   -0.0000    0.0000   -0.0000
       21 NB     3py       -0.0002   -0.0000    0.0000   -0.0000    0.0000   -0.0001    0.0000    0.0000   -0.0000    0.0000
       22 NB     4py       -0.0133    0.0000    0.0000   -0.0058    0.0000   -0.0163    0.0000    0.0000   -0.0000    0.0061
       23 NB     5py        0.8377   -0.0000   -0.0000    0.0237    0.0000   -0.0982    0.0000   -0.0000   -0.0000    0.0053
       24 NB     6py        0.3915   -0.0000   -0.0000    0.0109    0.0000   -0.0618    0.0000   -0.0000    0.0000   -0.0156
       25 NB     7py        0.3278   -0.0000   -0.0000    0.0107    0.0000   -0.0542    0.0000   -0.0000    0.0000   -0.0259
       26 NB     8py        0.1222   -0.0000   -0.0000    0.0038    0.0000   -0.0231    0.0000   -0.0000    0.0000   -0.0148
       27 NB     9py        0.0428   -0.0000   -0.0000    0.0013    0.0000   -0.0089    0.0000   -0.0000    0.0000   -0.0064
       28 NB    10py        0.0057   -0.0000   -0.0000    0.0002    0.0000   -0.0012    0.0000   -0.0000    0.0000   -0.0010
       29 NB     2pz        0.0000    0.0000   -0.0000   -0.0000   -0.0000   -0.0000   -0.0000    0.0000    0.0000    0.0000
       30 NB     3pz       -0.0000   -0.0003   -0.0000   -0.0000    0.0000    0.0000    0.0001   -0.0000   -0.0000   -0.0000
       31 NB     4pz        0.0000   -0.0122   -0.0000   -0.0000    0.0000    0.0000    0.0141    0.0082   -0.0000   -0.0000
       32 NB     5pz        0.0000    0.8037    0.0000    0.0000   -0.0000   -0.0000   -0.0820   -0.0030    0.0000   -0.0000
       33 NB     6pz        0.0000    0.4111    0.0000    0.0000   -0.0000   -0.0000   -0.0373    0.0613   -0.0000    0.0000
       34 NB     7pz        0.0000    0.3554    0.0000    0.0000   -0.0000   -0.0000   -0.0344    0.0749   -0.0000    0.0000
       35 NB     8pz        0.0000    0.1365    0.0000    0.0000   -0.0000   -0.0000   -0.0123    0.0395   -0.0000    0.0000
       36 NB     9pz        0.0000    0.0491    0.0000    0.0000   -0.0000   -0.0000   -0.0041    0.0169   -0.0000    0.0000
       37 NB    10pz        0.0000    0.0067    0.0000    0.0000   -0.0000   -0.0000   -0.0006    0.0025   -0.0000    0.0000
       38 NB     3d2-       0.0001   -0.0000   -0.0000    0.0003   -0.0000    0.0001   -0.0000   -0.0000    0.0000   -0.0006
       39 NB     4d2-      -0.0001   -0.0000   -0.0001    0.3912   -0.0000    0.0911   -0.0000   -0.0000    0.0000   -0.5616
       40 NB     5d2-       0.0239   -0.0000   -0.0001    0.5477   -0.0000    0.2010   -0.0000    0.0000    0.0000   -0.1926
       41 NB     6d2-       0.0095    0.0000   -0.0001    0.5812   -0.0000    0.2404   -0.0000    0.0000   -0.0000    0.3219
       42 NB     7d2-       0.0019    0.0000   -0.0001    0.2850   -0.0000    0.1308   -0.0000    0.0000   -0.0000    0.5084
       43 NB     8d2-      -0.0005    0.0000   -0.0000    0.0248   -0.0000    0.0173   -0.0000    0.0000   -0.0000    0.2215
       44 NB     9d2-      -0.0011    0.0000    0.0000   -0.0080   -0.0000    0.0003   -0.0000    0.0000   -0.0000    0.1152
       45 NB    10d2-       0.0003   -0.0000   -0.0000    0.0054   -0.0000    0.0020   -0.0000   -0.0000    0.0000   -0.0094
       46 NB     3d1-       0.0003   -0.0000    0.0000   -0.0001   -0.0000    0.0003   -0.0000   -0.0000   -0.0000    0.0003
       47 NB     4d1-       0.0598   -0.0000    0.0000   -0.1644   -0.0000    0.2844   -0.0000    0.0000   -0.0000    0.3015
       48 NB     5d1-       0.1048   -0.0000    0.0000   -0.2020   -0.0000    0.5274   -0.0000    0.0000   -0.0000    0.0955
       49 NB     6d1-       0.0685   -0.0000    0.0000   -0.2127   -0.0000    0.6198   -0.0000    0.0000    0.0000   -0.1663
       50 NB     7d1-       0.0170   -0.0000    0.0000   -0.1037   -0.0000    0.3346   -0.0000    0.0000    0.0000   -0.2596
       51 NB     8d1-      -0.0053    0.0000    0.0000   -0.0084   -0.0000    0.0430   -0.0000    0.0000    0.0000   -0.1133
       52 NB     9d1-      -0.0060    0.0000   -0.0000    0.0031   -0.0000    0.0002    0.0000    0.0000    0.0000   -0.0585
       53 NB    10d1-       0.0012   -0.0000    0.0000   -0.0020   -0.0000    0.0051   -0.0000   -0.0000   -0.0000    0.0047
       54 NB     3d0        0.0000    0.0000   -0.0000   -0.0000    0.0000    0.0000    0.0004    0.0003    0.0000    0.0000
       55 NB     4d0       -0.0000    0.0587   -0.0000   -0.0000    0.0000    0.0000    0.2991    0.0279    0.0000    0.0000
       56 NB     5d0       -0.0000    0.0674   -0.0000   -0.0000    0.0000    0.0000    0.5647   -0.0185    0.0000    0.0000
       57 NB     6d0       -0.0000    0.0663   -0.0000   -0.0000    0.0000    0.0000    0.6631   -0.0842   -0.0000   -0.0000
       58 NB     7d0       -0.0000    0.0215   -0.0000   -0.0000    0.0000    0.0000    0.3592   -0.0668   -0.0000   -0.0000
       59 NB     8d0        0.0000   -0.0040   -0.0000   -0.0000    0.0000    0.0000    0.0469   -0.0164   -0.0000   -0.0000
       60 NB     9d0        0.0000   -0.0042    0.0000    0.0000    0.0000    0.0000    0.0006   -0.0061   -0.0000   -0.0000
       61 NB    10d0       -0.0000    0.0008   -0.0000   -0.0000    0.0000    0.0000    0.0054   -0.0001    0.0000    0.0000
       62 NB     3d1+       0.0000   -0.0000    0.0001    0.0000    0.0003    0.0000   -0.0000   -0.0000   -0.0003   -0.0000
       63 NB     4d1+       0.0000    0.0000    0.1644    0.0000    0.2844    0.0000   -0.0000   -0.0000   -0.3015   -0.0000
       64 NB     5d1+       0.0000    0.0000    0.2020    0.0000    0.5274    0.0000   -0.0000   -0.0000   -0.0955   -0.0000
       65 NB     6d1+       0.0000    0.0000    0.2127    0.0000    0.6198    0.0000   -0.0000    0.0000    0.1663    0.0000
       66 NB     7d1+       0.0000    0.0000    0.1037    0.0000    0.3346    0.0000   -0.0000    0.0000    0.2596    0.0000
       67 NB     8d1+      -0.0000   -0.0000    0.0084    0.0000    0.0430    0.0000   -0.0000    0.0000    0.1133    0.0000
       68 NB     9d1+      -0.0000   -0.0000   -0.0031   -0.0000    0.0002    0.0000   -0.0000    0.0000    0.0585    0.0000
       69 NB    10d1+       0.0000    0.0000    0.0020    0.0000    0.0051    0.0000   -0.0000    0.0000   -0.0047   -0.0000
       70 NB     3d2+      -0.0000   -0.0000    0.0003    0.0000   -0.0001   -0.0000    0.0000   -0.0000   -0.0006   -0.0000
       71 NB     4d2+       0.0000   -0.0000    0.3912    0.0001   -0.0911   -0.0000    0.0000   -0.0000   -0.5616   -0.0000
       72 NB     5d2+      -0.0000   -0.0000    0.5477    0.0001   -0.2010   -0.0000    0.0000    0.0000   -0.1926   -0.0000
       73 NB     6d2+      -0.0000   -0.0000    0.5812    0.0001   -0.2404   -0.0000    0.0000    0.0000    0.3219    0.0000
       74 NB     7d2+      -0.0000   -0.0000    0.2850    0.0001   -0.1308   -0.0000    0.0000    0.0000    0.5084    0.0000
       75 NB     8d2+       0.0000    0.0000    0.0248    0.0000   -0.0173   -0.0000    0.0000    0.0000    0.2215    0.0000
       76 NB     9d2+       0.0000    0.0000   -0.0080   -0.0000   -0.0003   -0.0000    0.0000    0.0000    0.1152    0.0000
       77 NB    10d2+      -0.0000   -0.0000    0.0054    0.0000   -0.0020   -0.0000    0.0000    0.0000   -0.0094   -0.0000
       78 NB     4f3-       0.0000    0.0000   -0.0000    0.0000    0.0000   -0.0000   -0.0000    0.0000    0.0000   -0.0000
       79 NB     5f3-      -0.0000   -0.0000    0.0000   -0.0000   -0.0000    0.0000    0.0000    0.0000   -0.0000    0.0000
       80 NB     6f3-      -0.0000   -0.0000    0.0000   -0.0000   -0.0000    0.0000    0.0000   -0.0000   -0.0000    0.0000
       81 NB     7f3-      -0.0000   -0.0000    0.0000   -0.0000   -0.0000    0.0000    0.0000   -0.0000   -0.0000    0.0000
       82 NB     8f3-       0.0000    0.0000   -0.0000    0.0000    0.0000    0.0000   -0.0000    0.0000    0.0000   -0.0000
       83 NB     4f2-      -0.0000   -0.0000   -0.0000    0.0289   -0.0000    0.0179   -0.0000   -0.0000    0.0000   -0.0605
       84 NB     5f2-       0.0039    0.0000    0.0000   -0.0240    0.0000   -0.0138    0.0000    0.0000   -0.0000    0.0487
       85 NB     6f2-       0.0008    0.0000    0.0000   -0.0202    0.0000   -0.0111    0.0000   -0.0000   -0.0000    0.0391
       86 NB     7f2-      -0.0002    0.0000    0.0000   -0.0149    0.0000   -0.0085    0.0000   -0.0000   -0.0000    0.0275
       87 NB     8f2-      -0.0001    0.0000   -0.0000    0.0105   -0.0000    0.0058   -0.0000    0.0000    0.0000   -0.0183
       88 NB     4f1-      -0.0030   -0.0000    0.0000   -0.0097   -0.0000    0.0115   -0.0000    0.0000   -0.0000    0.0231
       89 NB     5f1-       0.0077    0.0000   -0.0000    0.0100    0.0000   -0.0167    0.0000   -0.0000    0.0000   -0.0217
       90 NB     6f1-       0.0048    0.0000   -0.0000    0.0088    0.0000   -0.0178    0.0000   -0.0000    0.0000   -0.0180
       91 NB     7f1-       0.0024    0.0000   -0.0000    0.0062    0.0000   -0.0136    0.0000   -0.0000    0.0000   -0.0121
       92 NB     8f1-      -0.0013   -0.0000    0.0000   -0.0045   -0.0000    0.0103   -0.0000    0.0000   -0.0000    0.0080
       93 NB     4f0        0.0000   -0.0047    0.0000    0.0000   -0.0000    0.0000    0.0012    0.0229   -0.0000   -0.0000
       94 NB     5f0       -0.0000    0.0086    0.0000    0.0000   -0.0000   -0.0000   -0.0141   -0.0248    0.0000   -0.0000
       95 NB     6f0       -0.0000    0.0064    0.0000    0.0000   -0.0000   -0.0000   -0.0164   -0.0049    0.0000   -0.0000
       96 NB     7f0        0.0000    0.0036    0.0000    0.0000   -0.0000   -0.0000   -0.0121   -0.0004    0.0000   -0.0000
       97 NB     8f0       -0.0000   -0.0020   -0.0000   -0.0000    0.0000    0.0000    0.0098   -0.0005   -0.0000    0.0000
       98 NB     4f1+      -0.0000   -0.0000    0.0097    0.0000    0.0115    0.0000   -0.0000    0.0000   -0.0231   -0.0000
       99 NB     5f1+       0.0000   -0.0000   -0.0100   -0.0000   -0.0167   -0.0000    0.0000   -0.0000    0.0217    0.0000
      100 NB     6f1+       0.0000   -0.0000   -0.0088   -0.0000   -0.0178   -0.0000    0.0000    0.0000    0.0180    0.0000
      101 NB     7f1+       0.0000   -0.0000   -0.0062   -0.0000   -0.0136   -0.0000    0.0000    0.0000    0.0121    0.0000
      102 NB     8f1+      -0.0000    0.0000    0.0045    0.0000    0.0103    0.0000   -0.0000   -0.0000   -0.0080   -0.0000
      103 NB     4f2+       0.0000    0.0000    0.0289    0.0000   -0.0179   -0.0000    0.0000   -0.0000   -0.0605   -0.0000
      104 NB     5f2+      -0.0000   -0.0000   -0.0240   -0.0000    0.0138    0.0000   -0.0000   -0.0000    0.0487    0.0000
      105 NB     6f2+      -0.0000   -0.0000   -0.0202   -0.0000    0.0111    0.0000   -0.0000   -0.0000    0.0391    0.0000
      106 NB     7f2+       0.0000   -0.0000   -0.0149   -0.0000    0.0085    0.0000   -0.0000   -0.0000    0.0275    0.0000
      107 NB     8f2+       0.0000    0.0000    0.0105    0.0000   -0.0058   -0.0000    0.0000    0.0000   -0.0183   -0.0000
      108 NB     4f3+       0.0000    0.0041    0.0000    0.0000    0.0000    0.0000    0.0097    0.0184   -0.0000   -0.0000
      109 NB     5f3+      -0.0000   -0.0073   -0.0000   -0.0000   -0.0000   -0.0000   -0.0060   -0.0171    0.0000    0.0000
      110 NB     6f3+      -0.0000   -0.0028   -0.0000   -0.0000    0.0000   -0.0000   -0.0039   -0.0044    0.0000    0.0000
      111 NB     7f3+      -0.0000   -0.0011   -0.0000   -0.0000    0.0000   -0.0000   -0.0028   -0.0017    0.0000    0.0000
      112 NB     8f3+       0.0000    0.0009    0.0000    0.0000   -0.0000    0.0000    0.0017    0.0007   -0.0000   -0.0000
      113 NB     5g4-      -0.0007   -0.0000    0.0000   -0.0005   -0.0000    0.0033   -0.0000   -0.0000   -0.0000    0.0018
      114 NB     6g4-      -0.0043    0.0000    0.0000   -0.0006   -0.0000    0.0017   -0.0000   -0.0000   -0.0000    0.0010
      115 NB     7g4-      -0.0019    0.0000    0.0000   -0.0002   -0.0000    0.0003   -0.0000   -0.0000   -0.0000    0.0002
      116 NB     8g4-      -0.0003    0.0000    0.0000   -0.0000   -0.0000    0.0002   -0.0000   -0.0000   -0.0000    0.0000
      117 NB     5g3-      -0.0000   -0.0000    0.0000   -0.0000   -0.0000    0.0000   -0.0000   -0.0000    0.0000    0.0000
      118 NB     6g3-      -0.0000    0.0000    0.0000   -0.0000   -0.0000    0.0000   -0.0000    0.0000   -0.0000    0.0000
      119 NB     7g3-      -0.0000    0.0000    0.0000   -0.0000   -0.0000    0.0000   -0.0000   -0.0000    0.0000    0.0000
      120 NB     8g3-      -0.0000   -0.0000    0.0000   -0.0000   -0.0000    0.0000    0.0000   -0.0000    0.0000    0.0000
      121 NB     5g2-      -0.0006    0.0000    0.0000   -0.0017    0.0000   -0.0022    0.0000   -0.0000   -0.0000    0.0028
      122 NB     6g2-      -0.0004    0.0000    0.0000   -0.0015    0.0000   -0.0012    0.0000   -0.0000   -0.0000    0.0022
      123 NB     7g2-      -0.0004    0.0000    0.0000   -0.0008    0.0000   -0.0003    0.0000   -0.0000   -0.0000    0.0009
      124 NB     8g2-      -0.0002    0.0000    0.0000   -0.0003    0.0000   -0.0002    0.0000    0.0000   -0.0000    0.0003
      125 NB     5g1-      -0.0019   -0.0000   -0.0000    0.0044    0.0000   -0.0005    0.0000   -0.0000    0.0000   -0.0099
      126 NB     6g1-      -0.0062    0.0000   -0.0000    0.0022    0.0000   -0.0015    0.0000   -0.0000    0.0000   -0.0051
      127 NB     7g1-      -0.0028    0.0000   -0.0000    0.0005    0.0000   -0.0011    0.0000   -0.0000    0.0000   -0.0009
      128 NB     8g1-      -0.0005    0.0000   -0.0000    0.0003    0.0000   -0.0003    0.0000    0.0000    0.0000   -0.0004
      129 NB     5g0       -0.0000   -0.0026    0.0000    0.0000   -0.0000   -0.0000   -0.0059   -0.0008   -0.0000    0.0000
      130 NB     6g0        0.0000   -0.0080    0.0000    0.0000   -0.0000   -0.0000   -0.0027    0.0011   -0.0000    0.0000
      131 NB     7g0       -0.0000   -0.0033    0.0000    0.0000   -0.0000   -0.0000   -0.0009    0.0004   -0.0000    0.0000
      132 NB     8g0       -0.0000   -0.0005    0.0000    0.0000   -0.0000   -0.0000   -0.0006   -0.0001   -0.0000   -0.0000
      133 NB     5g1+      -0.0000   -0.0000   -0.0044   -0.0000   -0.0005   -0.0000    0.0000    0.0000    0.0099    0.0000
      134 NB     6g1+      -0.0000   -0.0000   -0.0022   -0.0000   -0.0015   -0.0000    0.0000   -0.0000    0.0051    0.0000
      135 NB     7g1+      -0.0000   -0.0000   -0.0005   -0.0000   -0.0011   -0.0000    0.0000   -0.0000    0.0009    0.0000
      136 NB     8g1+      -0.0000   -0.0000   -0.0003   -0.0000   -0.0003   -0.0000    0.0000    0.0000    0.0004    0.0000
      137 NB     5g2+       0.0000    0.0000   -0.0017   -0.0000    0.0022    0.0000   -0.0000    0.0000    0.0028    0.0000
      138 NB     6g2+       0.0000   -0.0000   -0.0015   -0.0000    0.0012    0.0000    0.0000    0.0000    0.0022    0.0000
      139 NB     7g2+       0.0000   -0.0000   -0.0008   -0.0000    0.0003    0.0000    0.0000    0.0000    0.0009    0.0000
      140 NB     8g2+       0.0000   -0.0000   -0.0003   -0.0000    0.0002    0.0000    0.0000    0.0000    0.0003    0.0000
      141 NB     5g3+      -0.0000   -0.0011    0.0000    0.0000   -0.0000   -0.0000   -0.0014   -0.0048   -0.0000   -0.0000
      142 NB     6g3+      -0.0000   -0.0046    0.0000    0.0000    0.0000    0.0000   -0.0000   -0.0052   -0.0000   -0.0000
      143 NB     7g3+      -0.0000   -0.0016    0.0000    0.0000    0.0000    0.0000    0.0003    0.0001   -0.0000   -0.0000
      144 NB     8g3+      -0.0000   -0.0000    0.0000    0.0000    0.0000    0.0000   -0.0000    0.0004   -0.0000   -0.0000
      145 NB     5g4+      -0.0000    0.0000    0.0005    0.0000    0.0033    0.0000   -0.0000    0.0000   -0.0018   -0.0000
      146 NB     6g4+      -0.0000    0.0000    0.0006    0.0000    0.0017    0.0000   -0.0000    0.0000   -0.0010   -0.0000
      147 NB     7g4+      -0.0000   -0.0000    0.0002    0.0000    0.0003    0.0000   -0.0000   -0.0000   -0.0002   -0.0000
      148 NB     8g4+      -0.0000   -0.0000    0.0000    0.0000    0.0002    0.0000   -0.0000    0.0000   -0.0000   -0.0000
      149 NB     6h5-      -0.0000   -0.0000    0.0000   -0.0033    0.0000   -0.0008    0.0000    0.0000   -0.0000    0.0069
      150 NB     7h5-       0.0002    0.0000    0.0000   -0.0015    0.0000   -0.0004    0.0000    0.0000   -0.0000    0.0030
      151 NB     6h4-      -0.0006    0.0000   -0.0000    0.0007    0.0000   -0.0025    0.0000   -0.0000    0.0000   -0.0024
      152 NB     7h4-       0.0010   -0.0000   -0.0000    0.0005    0.0000   -0.0010    0.0000    0.0000    0.0000   -0.0012
      153 NB     6h3-      -0.0000   -0.0000    0.0000   -0.0000   -0.0000   -0.0000    0.0000    0.0000    0.0000   -0.0000
      154 NB     7h3-      -0.0000    0.0000   -0.0000    0.0000    0.0000   -0.0000    0.0000    0.0000    0.0000   -0.0000
      155 NB     6h2-      -0.0000    0.0000    0.0000   -0.0027    0.0000   -0.0009    0.0000    0.0000   -0.0000    0.0056
      156 NB     7h2-       0.0004   -0.0000    0.0000   -0.0012    0.0000   -0.0005    0.0000    0.0000   -0.0000    0.0025
      157 NB     6h1-      -0.0007    0.0000   -0.0000    0.0016    0.0000   -0.0032    0.0000   -0.0000    0.0000   -0.0046
      158 NB     7h1-      -0.0001    0.0000   -0.0000    0.0009    0.0000   -0.0015    0.0000   -0.0000    0.0000   -0.0023
      159 NB     6h0        0.0000   -0.0008    0.0000    0.0000   -0.0000   -0.0000   -0.0041   -0.0005   -0.0000   -0.0000
      160 NB     7h0       -0.0000   -0.0009    0.0000    0.0000   -0.0000   -0.0000   -0.0017    0.0004   -0.0000   -0.0000
      161 NB     6h1+      -0.0000   -0.0000   -0.0016   -0.0000   -0.0032   -0.0000    0.0000   -0.0000    0.0046    0.0000
      162 NB     7h1+      -0.0000   -0.0000   -0.0009   -0.0000   -0.0015   -0.0000    0.0000   -0.0000    0.0023    0.0000
      163 NB     6h2+       0.0000    0.0000   -0.0027   -0.0000    0.0009    0.0000   -0.0000    0.0000    0.0056    0.0000
      164 NB     7h2+      -0.0000   -0.0000   -0.0012   -0.0000    0.0005    0.0000   -0.0000   -0.0000    0.0025    0.0000
      165 NB     6h3+       0.0000   -0.0005    0.0000    0.0000   -0.0000   -0.0000   -0.0007    0.0007   -0.0000    0.0000
      166 NB     7h3+      -0.0000    0.0010   -0.0000   -0.0000   -0.0000   -0.0000   -0.0006    0.0009    0.0000   -0.0000
      167 NB     6h4+      -0.0000   -0.0000   -0.0007   -0.0000   -0.0025   -0.0000    0.0000   -0.0000    0.0024    0.0000
      168 NB     7h4+       0.0000   -0.0000   -0.0005   -0.0000   -0.0010   -0.0000    0.0000   -0.0000    0.0012    0.0000
      169 NB     6h5+       0.0000    0.0000   -0.0033   -0.0000    0.0008    0.0000   -0.0000    0.0000    0.0069    0.0000
      170 NB     7h5+      -0.0000   -0.0000   -0.0015   -0.0000    0.0004    0.0000   -0.0000   -0.0000    0.0030    0.0000

          Orbital           31        32        33        34        35        36        37        38        39        40    
[...]
         3    7       6.98970211E-04  1.89773878E+03  1.52237608E-05  1.08127810E-10  1.89773880E+03
         3    9       1.61976242E-01  3.45668087E+03  8.67691053E+06  4.53559941E+02  8.68082077E+06
         3   11       1.83598180E-01  8.67690996E+06  3.45668106E+03  1.15924238E+06  9.83960902E+06
         3   13       1.98331693E-01  1.86487825E+06  3.52370301E-01  1.23863163E+07  1.42511949E+07
         3   15       2.59531769E-02  3.52372982E-01  1.86487009E+06  4.66682699E+00  1.86487511E+06
         3   17       4.84170966E-02  3.53156159E+06  2.83306950E-02  2.04485712E-05  3.53156162E+06
         4    8       6.98970211E-04  1.89773878E+03  1.52237608E-05  1.08127810E-10  1.89773880E+03
         4   10       1.61976242E-01  3.45668087E+03  8.67691053E+06  4.53559941E+02  8.68082077E+06
         4   12       1.83598180E-01  8.67690996E+06  3.45668106E+03  1.15924238E+06  9.83960902E+06
         4   14       1.98331693E-01  1.86487825E+06  3.52370301E-01  1.23863163E+07  1.42511949E+07
         4   16       2.59531769E-02  3.52372982E-01  1.86487009E+06  4.66682699E+00  1.86487511E+06
         4   18       4.84170966E-02  3.53156159E+06  2.83306950E-02  2.04485712E-05  3.53156162E+06
         5    7       6.98968524E-04  1.52238333E-05  1.89773137E+03  4.17213958E-18  1.89773139E+03
         5    9       1.83598156E-01  8.67690678E+06  3.45667888E+03  1.15924094E+06  9.83960440E+06
         5   11       1.61976193E-01  3.45667957E+03  8.67690499E+06  4.53559398E+02  8.68081523E+06
         5   13       2.59531102E-02  3.52369705E-01  1.86486447E+06  4.66682547E+00  1.86486949E+06
         5   15       1.98331585E-01  1.86486946E+06  3.52369949E-01  1.23863153E+07  1.42511852E+07
         5   17       4.84173935E-02  2.83305026E-02  3.53158223E+06  1.44183881E-13  3.53158226E+06
         6    8       6.98968524E-04  1.52238333E-05  1.89773137E+03  4.17213958E-18  1.89773139E+03
         6   10       1.83598156E-01  8.67690678E+06  3.45667888E+03  1.15924094E+06  9.83960440E+06
         6   12       1.61976193E-01  3.45667957E+03  8.67690499E+06  4.53559398E+02  8.68081523E+06
         6   14       2.59531102E-02  3.52369705E-01  1.86486447E+06  4.66682547E+00  1.86486949E+06
         6   16       1.98331585E-01  1.86486946E+06  3.52369949E-01  1.23863153E+07  1.42511852E+07
         6   18       4.84173935E-02  2.83305026E-02  3.53158223E+06  1.44183881E-13  3.53158226E+06
         7    9       1.94835251E-02  2.47461445E+02  6.26788351E+05  3.92710549E-10  6.27035812E+05
         7   11       1.94835471E-02  6.26789061E+05  2.47461178E+02  9.96732127E-07  6.27036522E+05
         7   13       1.66532146E-01  7.76629473E+06  2.13449025E+00  2.62102531E-05  7.76629687E+06
         7   15       1.66532178E-01  2.13449002E+00  7.76629769E+06  7.42519414E-12  7.76629982E+06
         7   17       2.84380712E-01  1.29567099E-05  1.76246532E-16  1.35110205E+07  1.35110205E+07
         8   10       1.94835251E-02  2.47461445E+02  6.26788351E+05  3.92710549E-10  6.27035812E+05
         8   12       1.94835471E-02  6.26789061E+05  2.47461178E+02  9.96732127E-07  6.27036522E+05
         8   14       1.66532146E-01  7.76629473E+06  2.13449025E+00  2.62102531E-05  7.76629687E+06
         8   16       1.66532178E-01  2.13449002E+00  7.76629769E+06  7.42519414E-12  7.76629982E+06
         8   18       2.84380712E-01  1.29567099E-05  1.76246532E-16  1.35110205E+07  1.35110205E+07
         9   13       3.26853166E-04  1.63370170E-01  4.36536585E+02  9.94341134E-02  4.36799389E+02
         9   15       5.05671145E-04  4.36538249E+02  1.63370699E-01  2.39066939E+02  6.75768559E+02
        10   14       3.26853166E-04  1.63370170E-01  4.36536585E+02  9.94341134E-02  4.36799389E+02
        10   16       5.05671145E-04  4.36538249E+02  1.63370699E-01  2.39066939E+02  6.75768559E+02
        11   13       5.05670721E-04  4.36536563E+02  1.63370177E-01  2.39067307E+02  6.75767240E+02
        11   15       3.26853814E-04  1.63370817E-01  4.36537937E+02  9.94339844E-02  4.36800742E+02
        12   14       5.05670721E-04  4.36536563E+02  1.63370177E-01  2.39067307E+02  6.75767240E+02
        12   16       3.26853814E-04  1.63370817E-01  4.36537937E+02  9.94339844E-02  4.36800742E+02
     -----------------------------------------------------------------------------------------------
--

++ Velocity transition strengths (SO states):
   ------------------------------------------
    for osc. strength at least    1.0000000000000001E-005

      From   To        Osc. strength     Einstein coefficients Ax, Ay, Az (sec-1)    Total A (sec-1)
     -----------------------------------------------------------------------------------------------
         1    3       3.25405413E-01  3.94502037E+07  3.16473296E-01  2.08296725E-08  3.94502041E+07
         1    5       3.25405406E-01  3.16473183E-01  3.94502117E+07  4.32013583E-16  3.94502120E+07
         1    7       3.11716488E-01  2.95914292E-09  1.85836015E-15  4.99477258E+07  4.99477258E+07
         1    9       8.82777501E-05  1.17072572E+01  2.96531043E+04  2.79425373E-12  2.96648115E+04
         1   11       8.82775097E-05  2.96530234E+04  1.17072882E+01  6.21453889E-09  2.96647307E+04
         1   17       1.58942224E-03  1.85937693E-10  8.53814522E-17  6.07553305E+05  6.07553305E+05
         2    4       3.25405413E-01  3.94502037E+07  3.16473296E-01  2.08296725E-08  3.94502041E+07
         2    6       3.25405406E-01  3.16473183E-01  3.94502117E+07  4.32013583E-16  3.94502120E+07
         2    8       3.11716488E-01  2.95914292E-09  1.85836015E-15  4.99477258E+07  4.99477258E+07
         2   10       8.82777501E-05  1.17072572E+01  2.96531043E+04  2.79425373E-12  2.96648115E+04
         2   12       8.82775097E-05  2.96530234E+04  1.17072882E+01  6.21453889E-09  2.96647307E+04
         2   18       1.58942224E-03  1.85937693E-10  8.53814522E-17  6.07553305E+05  6.07553305E+05
         3    7       1.22574850E-02  3.32797952E+04  2.66972678E-04  2.73907412E-09  3.32797955E+04
         3    9       3.23698864E-01  6.90797014E+03  1.73402869E+07  9.14597108E+02  1.73481095E+07
         3   11       3.67299044E-01  1.73402860E+07  6.90797044E+03  2.33759561E+06  1.96847896E+07
         3   13       3.89779607E-01  3.64643572E+06  6.88997282E-01  2.43614143E+07  2.80078507E+07
         3   15       5.07466151E-02  6.89002248E-01  3.64641958E+06  9.17871693E+00  3.64642945E+06
         3   17       9.42186063E-02  6.87236516E+06  5.51310909E-02  4.08472982E-05  6.87236522E+06
         4    8       1.22574850E-02  3.32797952E+04  2.66972678E-04  2.73907412E-09  3.32797955E+04
         4   10       3.23698864E-01  6.90797014E+03  1.73402869E+07  9.14597108E+02  1.73481095E+07
         4   12       3.67299044E-01  1.73402860E+07  6.90797044E+03  2.33759561E+06  1.96847896E+07
         4   14       3.89779607E-01  3.64643572E+06  6.88997282E-01  2.43614143E+07  2.80078507E+07
         4   16       5.07466151E-02  6.89002248E-01  3.64641958E+06  9.17871693E+00  3.64642945E+06
         4   18       9.42186063E-02  6.87236516E+06  5.51310909E-02  4.08472982E-05  6.87236522E+06
         5    7       1.22574827E-02  2.66974586E-04  3.32797394E+04  1.59674495E-18  3.32797397E+04
         5    9       3.67299041E-01  1.73402820E+07  6.90796689E+03  2.33759293E+06  1.96847829E+07
         5   11       3.23698802E-01  6.90796847E+03  1.73402778E+07  9.14596107E+02  1.73481004E+07
         5   13       5.07464959E-02  6.88996209E-01  3.64640940E+06  9.17871769E+00  3.64641927E+06
         5   15       3.89779449E-01  3.64641914E+06  6.88996092E-01  2.43614157E+07  2.80078355E+07
         5   17       9.42191952E-02  5.51307423E-02  6.87240614E+06  2.90107148E-13  6.87240620E+06
         6    8       1.22574827E-02  2.66974586E-04  3.32797394E+04  1.59674495E-18  3.32797397E+04
         6   10       3.67299041E-01  1.73402820E+07  6.90796689E+03  2.33759293E+06  1.96847829E+07
         6   12       3.23698802E-01  6.90796847E+03  1.73402778E+07  9.14596107E+02  1.73481004E+07
         6   14       5.07464959E-02  6.88996209E-01  3.64640940E+06  9.17871769E+00  3.64641927E+06
         6   16       3.89779449E-01  3.64641914E+06  6.88996092E-01  2.43614157E+07  2.80078355E+07
         6   18       9.42191952E-02  5.51307423E-02  6.87240614E+06  2.90107148E-13  6.87240620E+06
         7    9       4.83504950E-02  6.14104632E+02  1.55544914E+06  9.32599613E-10  1.55606325E+06
         7   11       4.83505419E-02  1.55545065E+06  6.14104073E+02  2.35606406E-06  1.55606476E+06
         7   13       3.80320428E-01  1.77364604E+07  4.87469343E+00  6.05319929E-05  1.77364652E+07
         7   15       3.80320483E-01  4.87469162E+00  1.77364663E+07  1.65712902E-11  1.77364712E+07
         7   17       6.58094995E-01  2.89544186E-05  3.11121785E-16  3.12664169E+07  3.12664169E+07
         8   10       4.83504950E-02  6.14104632E+02  1.55544914E+06  9.32599613E-10  1.55606325E+06
         8   12       4.83505419E-02  1.55545065E+06  6.14104073E+02  2.35606406E-06  1.55606476E+06
         8   14       3.80320428E-01  1.77364604E+07  4.87469343E+00  6.05319929E-05  1.77364652E+07
         8   16       3.80320483E-01  4.87469162E+00  1.77364663E+07  1.65712902E-11  1.77364712E+07
         8   18       6.58094995E-01  2.89544186E-05  3.11121785E-16  3.12664169E+07  3.12664169E+07
         9   13       1.76292657E-02  8.81364840E+00  2.35505877E+04  4.39496649E-02  2.35594453E+04
         9   15       1.77083326E-02  2.35506507E+04  8.81363724E+00  1.05670882E+02  2.36651352E+04
         9   17       2.56733428E-03  1.50749272E+00  3.81833842E+03  7.98774012E-14  3.81984591E+03
        10   14       1.76292657E-02  8.81364840E+00  2.35505877E+04  4.39496649E-02  2.35594453E+04
        10   16       1.77083326E-02  2.35506507E+04  8.81363724E+00  1.05670882E+02  2.36651352E+04
        10   18       2.56733428E-03  1.50749272E+00  3.81833842E+03  7.98774012E-14  3.81984591E+03
        11   13       1.77083755E-02  2.35506855E+04  8.81361095E+00  1.05667099E+02  2.36651662E+04
        11   15       1.76292963E-02  8.81363459E+00  2.35506547E+04  4.39511470E-02  2.35595123E+04
        11   17       2.56730289E-03  3.81829169E+03  1.50751132E+00  1.66266860E-10  3.81979920E+03
        12   14       1.77083755E-02  2.35506855E+04  8.81361095E+00  1.05667099E+02  2.36651662E+04
        12   16       1.76292963E-02  8.81363459E+00  2.35506547E+04  4.39511470E-02  2.35595123E+04
        12   18       2.56730289E-03  3.81829169E+03  1.50751132E+00  1.66266860E-10  3.81979920E+03
        13   17       6.58340886E-01  2.67640961E+03  7.35585944E-04  1.34589509E-09  2.67641035E+03
        14   18       6.58340886E-01  2.67640961E+03  7.35585944E-04  1.34589509E-09  2.67641035E+03
        15   17       6.58348403E-01  7.35577359E-04  2.67638612E+03  5.43934985E-16  2.67638686E+03
        16   18       6.58348403E-01  7.35577359E-04  2.67638612E+03  5.43934985E-16  2.67638686E+03
     -----------------------------------------------------------------------------------------------
--

++ Length and velocity gauge comparison (SO states):

 --------------------------------------------------
 A comparison between the dipole oscillator strengths in 
 length and velocity gauge will be performed

 All dipole oscillator differences above the tolerance of   0.10000000000000001       will be printed 

 Due to basis set deficiency these oscillator may be problematic 

 The tolerance is defined as ABS(1-O_l/O_v) 
 O_l : dipole oscillator strength in length gauge
 O_p : dipole oscillator strength in velocity gauge
 --------------------------------------------------

  Problematic transitions have been found

      From   To       Difference (%) Osc. st. (len.) Osc. st. (vel.)
     ---------------------------------------------------------------
         1    3            15.470604  3.75747596E-01  3.25405413E-01
         1    5            15.470601  3.75747579E-01  3.25405406E-01
         1    7            15.404601  3.59735171E-01  3.11716488E-01
         1    9            64.276446  3.15359494E-05  8.82777501E-05
         1   11            64.276696  3.15356427E-05  8.82775097E-05
         1   13      ---------------  1.23363232E-04 below threshold
         1   15      ---------------  1.23363601E-04 below threshold
         1   17            47.238057  8.38610051E-04  1.58942224E-03
         2    4            15.470604  3.75747596E-01  3.25405413E-01
         2    6            15.470601  3.75747579E-01  3.25405406E-01
         2    8            15.404601  3.59735171E-01  3.11716488E-01
         2   10            64.276446  3.15359494E-05  8.82777501E-05
         2   12            64.276696  3.15356427E-05  8.82775097E-05
         2   14      ---------------  1.23363232E-04 below threshold
         2   16      ---------------  1.23363601E-04 below threshold
         2   18            47.238057  8.38610051E-04  1.58942224E-03
         3    7            94.297605  6.98970211E-04  1.22574850E-02
         3    9            49.960825  1.61976242E-01  3.23698864E-01
         3   11            50.013978  1.83598180E-01  3.67299044E-01
         3   13            49.116965  1.98331693E-01  3.89779607E-01
         3   15            48.857324  2.59531769E-02  5.07466151E-02
         3   17            48.611958  4.84170966E-02  9.42186063E-02
         4    8            94.297605  6.98970211E-04  1.22574850E-02
         4   10            49.960825  1.61976242E-01  3.23698864E-01
         4   12            50.013978  1.83598180E-01  3.67299044E-01
         4   14            49.116965  1.98331693E-01  3.89779607E-01
         4   16            48.857324  2.59531769E-02  5.07466151E-02
         4   18            48.611958  4.84170966E-02  9.42186063E-02
         5    7            94.297618  6.98968524E-04  1.22574827E-02
         5    9            50.013984  1.83598156E-01  3.67299041E-01
         5   11            49.960830  1.61976193E-01  3.23698802E-01
         5   13            48.857335  2.59531102E-02  5.07464959E-02
         5   15            49.116972  1.98331585E-01  3.89779449E-01
         5   17            48.611964  4.84173935E-02  9.42191952E-02
         6    8            94.297618  6.98968524E-04  1.22574827E-02
         6   10            50.013984  1.83598156E-01  3.67299041E-01
         6   12            49.960830  1.61976193E-01  3.23698802E-01
         6   14            48.857335  2.59531102E-02  5.07464959E-02
         6   16            49.116972  1.98331585E-01  3.89779449E-01
         6   18            48.611964  4.84173935E-02  9.42191952E-02
         7    9            59.703566  1.94835251E-02  4.83504950E-02
         7   11            59.703560  1.94835471E-02  4.83505419E-02
         7   13            56.212674  1.66532146E-01  3.80320428E-01
         7   15            56.212672  1.66532178E-01  3.80320483E-01
         7   17            56.787285  2.84380712E-01  6.58094995E-01
         8   10            59.703566  1.94835251E-02  4.83504950E-02
         8   12            59.703560  1.94835471E-02  4.83505419E-02
         8   14            56.212674  1.66532146E-01  3.80320428E-01
         8   16            56.212672  1.66532178E-01  3.80320483E-01
         8   18            56.787285  2.84380712E-01  6.58094995E-01
         9   13            98.145963  3.26853166E-04  1.76292657E-02
         9   15            97.144445  5.05671145E-04  1.77083326E-02
         9   17      --------------- below threshold  2.56733428E-03
        10   14            98.145963  3.26853166E-04  1.76292657E-02
        10   16            97.144445  5.05671145E-04  1.77083326E-02
        10   18      --------------- below threshold  2.56733428E-03
        11   13            97.144454  5.05670721E-04  1.77083755E-02
        11   15            98.145962  3.26853814E-04  1.76292963E-02
        11   17      --------------- below threshold  2.56730289E-03
        12   14            97.144454  5.05670721E-04  1.77083755E-02
        12   16            98.145962  3.26853814E-04  1.76292963E-02
        12   18      --------------- below threshold  2.56730289E-03
        13   17      --------------- below threshold  6.58340886E-01
        14   18      --------------- below threshold  6.58340886E-01
        15   17      --------------- below threshold  6.58348403E-01
        16   18      --------------- below threshold  6.58348403E-01
     ---------------------------------------------------------------

 Number of problematic transitions =                    66

--

 Electric-dipole - electric-octupole not included
++ I/O STATISTICS
 
  I. General I/O information
  - - - - - - - - - - - - - - - - - - - - - - - - - - - - - - - - - - - - - - - - - - -
  Unit  Name          Flsize      Write/Read            MBytes           Write/Read
                      (MBytes)       Calls              In/Out           Time, sec.
  - - - - - - - - - - - - - - - - - - - - - - - - - - - - - - - - - - - - - - - - - - -
   1  SCRATCH           0.00 .       9/      45 .      0.0/      0.0 .       0/       0
   2  ANNI              0.00 .       0/       0 .      0.0/      0.0 .       0/       0
   3  RUNFILE          14.67 .     322/   10031 .      2.3/     72.7 .       0/       0
   4  ONEINT            5.14 .       0/   22237 .      0.0/   3722.5 .       0/       0
   5  JOBIPH            5.92 .       0/      92 .      0.0/      0.7 .       0/       0
   6  ORDINT          403.03 .       1/    3225 .      0.0/    806.0 .       0/       0
  - - - - - - - - - - - - - - - - - - - - - - - - - - - - - - - - - - - - - - - - - - -
   *  TOTAL           428.76 .     332/   35630 .      2.3/   4602.0 .       0/       0
  - - - - - - - - - - - - - - - - - - - - - - - - - - - - - - - - - - - - - - - - - - -
 
  II. I/O Access Patterns
  - - - - - - - - - - - - - - - - - - - -
  Unit  Name               % of random
                         Write/Read calls
  - - - - - - - - - - - - - - - - - - - -
   1  SCRATCH             88.9/ 100.0
   2  ANNI                 0.0/   0.0
   3  RUNFILE             28.6/  10.8
   4  ONEINT               0.0/  17.4
   5  JOBIPH               0.0/  76.1
   6  ORDINT             100.0/   0.1
  - - - - - - - - - - - - - - - - - - - -
--
--- Stop Module: rassi at Fri Jan 10 02:24:39 2025 /rc=_RC_ALL_IS_WELL_ ---
*** files: xmldump
    saved to directory /home4/s4752295/Internship/Initial_simulations/Point_charge_model/1_electron/active_space_9_non_rel/Nb/varying_bond_length
--- Module rassi spent 3 seconds ---

.##################.
.# Happy landing! #.
.##################.

    Timing: Wall=40.42 User=30.46 System=6.32

###############################################################################
Hbrk Cluster
Job 14556682 for user s4752295
Finished at: Fri Jan 10 02:24:39 CET 2025

Job details:
============

Job ID                         : 14556682
Name                           : Nb_no_c_light
User                           : s4752295
Partition                      : regularmedium
Nodes                          : node101
Number of Nodes                : 1
Cores                          : 1
Number of Tasks                : 1
State                          : COMPLETED  
Submit                         : 2025-01-10T02:23:53
Start                          : 2025-01-10T02:23:54
End                            : 2025-01-10T02:24:39
Reserved walltime              : 15:00:00
Used walltime                  : 00:00:45
Used CPU time                  : 00:00:38 (Efficiency: 83.71%)
% User (Computation)           : 82.62%
% System (I/O)                 : 17.38%
Total memory reserved          : 25000M
Maximum memory used            : 1.62G

Acknowledgements:
=================

Please see this page for information about acknowledging Hbrk in your publications:

https://wiki.hpc.rug.nl/habrok/introduction/scientific_output

################################################################################
