   This run of MOLCAS is using the pymolcas driver

                             OPE
                             OPE          NMOL  CASOP  ENMOLC A   SO
                 OPE        NMOLC        AS  OP EN  MO LC     AS  OP
                OPENM       OL CA        SO  PE NM  OL CA     SOP EN
                OP EN      MO   LC       AS  OP ENMOL  CASO   PENMOL
                OP  EN     MO   LC       AS  OP EN     MO     LC ASO
               OP   E  NMOL  C  AS       OP  EN MO     LC     AS  OP
               OP  E   NMO   LC AS        OPEN  MO     LCASOP EN   M
               O  PEN   MO  LCA  SO
            OPE   NMO   L   CAS    OP
        OPENMOL  CASOP     ENMOL   CASOPE
     OPENMOLCA   SOPENMOLCASOPEN   MOLCASOPE
    OPENMOLCAS   OP           EN   MOL    CAS
    OPENMOLCAS       OP  ENM        O     LCA
    OPENMOLCAS    OPEN  MOLCASO     P  E  NMO
    OPENMOLCAS     OP               E  N  MOL
    OPENMOLCA   SO           PENM   O  L  CAS    OPEN    MO    LCAS
    OPENMOLCA   SOP           ENM   O  L  CAS   OP  EN  MOLC  AS   O
    OPENMOLCA   SOPE           NM      O  LCA   S      OP  EN MO
    OPENMOLC                AS         O  PEN   M      OL  CA  SOPE
    OPENMO        LCASOPE  NMOL        C  ASO   P      ENMOLC     AS
    OPE     NMO      LCA  SO     P     E   NM   OL  CA SO  PE N   MO
          OPENMOLCA            SOPE   NMO        LCAS  O    P  ENMO
     OPENMOLCASOPENMOLCASOPENMOLCASOPENMOLCA
        OPENMOLCASOPENMOLCASOPENMOLCASOPE
            OPENMOLCASOPENMOLCASOPENM
               OPENMOLCASOPENMOLCA        version: o91e1abe7de707b ?
                   OPENMOLCASO
                       OPE                tag:

 OpenMolcas is free software; you can redistribute it and/or modify it
 under the terms of the GNU Lesser General Public License version 2.1.
 OpenMolcas is distributed in the hope that it will be useful, but it
 is provided "as is" and without any express or implied warranties.
 For more details see the full text of the license in the file
 LICENSE or in <http://www.gnu.org/licenses/>.

                 Copyright (C) The OpenMolcas Authors
           For the author list and the recommended citation,
                   consult the file CONTRIBUTORS.md

           *************************************************
           * pymolcas version py2.10                       *
           *   build 3068ae8b88c9345ec6cfef6fef7f1169      *
           *   (after the EMIL interpreter by V. Veryazov) *
           *************************************************

configuration info
------------------
Host name: login1 (Linux)
C Compiler ID: GNU
C flags: -std=gnu99
Fortran Compiler ID: GNU
Fortran flags: -fno-aggressive-loop-optimizations -cpp -fdefault-integer-8 -fmax-stack-var-size=1048576
Definitions: _MOLCAS_;_I8_;_LINUX_;_MKL_
Parallel: OFF (GA=OFF)


   ----------------------------------------------------------------------------------------------------------------------------------------------
  |
  |           Project: niobium_so_cf
  |    Submitted from: /home4/s4752295/Internship/Initial_simulations/Point_charge_model/1_electron/active_space_9_non_rel/Nb/varying_bond_length
  |      Scratch area: /tmp/niobium_so_cf
  |   Save outputs to: /home4/s4752295/Internship/Initial_simulations/Point_charge_model/1_electron/active_space_9_non_rel/Nb/varying_bond_length
  |            Molcas: /home4/s4752295/Internship/Molcas/recomp_try/OpenMolcas-master/build
  |
  | Scratch area is empty
  |
  |    MOLCAS_DRIVER = /home4/s4752295/Internship/Molcas/bin/pymolcas
  |    MOLCAS_NPROCS = 1
  |    MOLCAS_SOURCE = /home4/s4752295/Internship/Molcas/recomp_try/OpenMolcas-master
  | MOLCAS_STRUCTURE = 0
  |
   ----------------------------------------------------------------------------------------------------------------------------------------------

++ ---------   Input file   ---------

&SEWARD
AMFi

CLIG
$R

Basis Set
Nb.ANO-rcc.Roos.21s18p13d6f4g2h.10s9p8d5f4g2h.
Spherical d
Nb            0.0       0.0     0.0
End of Basis

Xfield

4
0.000000,  0.0000,  0.270       -1.0
0.233827,  0.0000, -0.135       -1.0
-0.116913,  0.2025, -0.135      -1.0
-0.116913, -0.2025, -0.135      -1.0

End of input

&SCF
Occupied
18
Iterations
   50  100
End of Input

&RASSCF
LumOrb
Symmetry
1
Spin
2
Nactel
1 0 0
CIRoot
9 9 1
inactive
18
ras2
9
Alter
4
1 19 24
1 20 25
1 21 26
1 22 27
End of Input

>>> COPY niobium_so_cf.JobIph $SLURM_SUBMIT_DIR/niobium_so_cf.doublet.JobIph

>>> COPY $SLURM_SUBMIT_DIR/niobium_so_cf.doublet.JobIph ./JOB002

&RASSI
NROFJobIph
1 All
SpinOrbit
End of Input

EOF

-- ----------------------------------

--- Start Module: seward at Thu Jan  9 20:49:15 2025 ---

()()()()()()()()()()()()()()()()()()()()()()()()()()()()()()()()()()()()()()()()()()()()()()()()()()

                                              &SEWARD

                                   only a single process is used
                       available to each process: 4.1 GB of memory, 1 thread?
                                            pid: 200490
()()()()()()()()()()()()()()()()()()()()()()()()()()()()()()()()()()()()()()()()()()()()()()()()()()

 The speed of LIGHT in this CALCULATION =   137.03599917700001     
               SEWARD will generate:
                  Multipole Moment integrals up to order  2
                  Kinetic Energy integrals
                  Nuclear Attraction integrals (point charge)
                  One-Electron Hamiltonian integrals
                  Velocity integrals
                  Relativistic Douglas-Kroll-Hess integrals:
                    - Parametrization         : EXP
                    - DKH order of Hamiltonian: 2
                    - DKH order of Properties : 0
                         - multipole moment operators
                         - electric potential operators
                         - contact operators
                  External field from     4 point(s) added to the one-electron Hamiltonian
                  Orbital angular momentum around ( 0.0000  0.0000  0.0000 )
                  Velocity quadrupole around ( 0.0000  0.0000  0.0000 )
                  Atomic mean-field integrals
                  Two-Electron Repulsion integrals

                   Integrals are discarded if absolute value <: 0.10E-13
                   Integral cutoff threshold is set to       <: 0.10E-15

++    Symmetry information:
      ---------------------

                    Character Table for C1 

                             E  
                    a        1  x, y, xy, Rz, z, xz, Ry, yz, Rx, I
--


++    Basis set information:
      ----------------------


      Basis set label: NB.ANO-RCC.ROOS.21S18P13D6F4G2H.10S9P8D5F4G2H......

      Electronic valence basis set:
      ------------------
      Associated Effective Charge  41.000000 au
      Associated Actual Charge     41.000000 au
      Nuclear Model: Point charge

      Shell  nPrim  nBasis  Cartesian Spherical Contaminant
         s      21      10        X                  
         p      18       9        X                  
         d      13       8                 X         
         f       6       5                 X         
         g       4       4                 X         
         h       2       2                 X         
--


++    Molecular structure info:
      -------------------------

                    ************************************************ 
                    **** Cartesian Coordinates / Bohr, Angstrom **** 
                    ************************************************ 

     Center  Label                x              y              z                     x              y              z
        1      NB               0.000000       0.000000       0.000000              0.000000       0.000000       0.000000
--


++    Operator info:
      --------------


  Net charge from external field:   -4.0000000000000000     
--


            Nuclear Potential Energy              0.00000000 au

                    Nuclear-External Field Potential Energy    -607.40754794 au
                    External Field Potential Energy              13.82241410 au 


            Total Nuclear Potential Energy           -607.40754794 au


      Basis set specifications :
      Symmetry species         a  
      Basis functions          170

 Sorry, Molden does not know how to handle
 functions with angular momentum larger than g
Note: The following floating-point exceptions are signalling: IEEE_UNDERFLOW_FLAG IEEE_DENORMAL
--- Stop Module: seward at Thu Jan  9 20:49:23 2025 /rc=_RC_ALL_IS_WELL_ ---
*** files: niobium_so_cf.GssOrb xmldump
    saved to directory /home4/s4752295/Internship/Initial_simulations/Point_charge_model/1_electron/active_space_9_non_rel/Nb/varying_bond_length
--- Module seward spent 8 seconds ---

*** symbolic link created: INPORB -> niobium_so_cf.GssOrb
--- Start Module: scf at Thu Jan  9 20:49:23 2025 ---

()()()()()()()()()()()()()()()()()()()()()()()()()()()()()()()()()()()()()()()()()()()()()()()()()()

                                                &SCF

                                   only a single process is used
                       available to each process: 4.1 GB of memory, 1 thread?
                                            pid: 200690
()()()()()()()()()()()()()()()()()()()()()()()()()()()()()()()()()()()()()()()()()()()()()()()()()()

++    Input section:
      --------------

      Header of the integral files:
      
       Integrals generated by seward 4.2.0  , Thu Jan  9 20:49:15 2025


      Cartesian coordinates in Angstrom:
      -----------------------------------------------------
      No.  Label        X            Y            Z        
      -----------------------------------------------------
       1   NB         0.00000000   0.00000000   0.00000000
      -----------------------------------------------------
      Nuclear repulsion energy = -607.40754794
--

++    Orbital specifications:
      -----------------------

      Symmetry species               1
                                     a
      Frozen orbitals                0
      Occupied orbitals             18
      Secondary orbitals           152
      Deleted orbitals               0
      Total number of orbitals     170
      Number of basis functions    170
--

      Molecular charge                           5.000

++    Optimization specifications:
      ----------------------------

      SCF Algorithm: Conventional
      Minimized density differences are used
      Number of density matrices in core                5
      Maximum number of NDDO SCF iterations            50
      Maximum number of HF SCF iterations             100
      Threshold for SCF energy change            0.10E-08
      Threshold for density matrix               0.10E-03
      Threshold for Fock matrix                  0.15E-03
      Threshold for linear dependence            0.10E-08
      Threshold at which DIIS is turned on       0.15E+00
      Threshold at which QNR/C2DIIS is turned on 0.75E-01
      Threshold for Norm(delta) (QNR/C2DIIS)     0.20E-04
      DIIS extrapolation of the SCF procedure
      All orbitals punched on: SCFORB
--

      Detected guessorb starting orbitals                                             


++ Convergence information
                                   SCF        iterations: Energy and convergence statistics

Iter     Tot. SCF        One-elec.       Two-elec.     Energy      Max Dij or  Max Fij      DNorm      TNorm      AccCon     Time
         Energy          Energy          Energy        Change      Delta Norm                                                in Sec.

 The total and one-electron energies are shifted by a value of      4000. a.u.

   1   -60.888357645  -808.885245757  1355.404436053   0.00E+00    0.52E+00*   0.24E+01*    0.85E+01   0.49E+03   None         1.
   2   -65.608680855  -587.107193451  1128.906060537  -0.47E+01*   0.13E+00*   0.93E+00*    0.47E+01   0.45E+03   EDIIS        1.
   3   -70.697725433  -710.186027829  1246.895850338  -0.51E+01*   0.11E+00*   0.33E+00*    0.74E+00   0.47E+03   EDIIS        1.
   4   -70.867390422  -674.836918857  1211.377076376  -0.17E+00*   0.25E-01*   0.17E+00*    0.14E+00   0.46E+03   EDIIS        1.
   5   -70.962718421  -692.711391159  1229.156220679  -0.95E-01*   0.18E-01*   0.68E-01*    0.41E-01   0.47E+03   EDIIS        1.
   6   -70.969609589  -685.686681519  1222.124619872  -0.69E-02*   0.89E-03*   0.26E-01*    0.12E-01   0.46E+03   c2DIIS       1.
   7   -70.973928107  -688.389439970  1224.823059804  -0.43E-02*   0.46E-03*   0.29E-03*    0.90E-03   0.46E+03   QNRc2DIIS    1.
   8   -70.973929034  -688.379745856  1224.813364763  -0.93E-06*   0.26E-03*   0.81E-04     0.93E-04   0.46E+03   QNRc2DIIS    1.
   9   -70.973929143  -688.386992406  1224.820611205  -0.11E-06*   0.28E-04*   0.54E-04     0.34E-04   0.46E+03   QNRc2DIIS    1.
  10   -70.973929152  -688.383155478  1224.816774268  -0.94E-08*   0.69E-05    0.88E-05     0.13E-02   0.46E+03   QNRc2DIIS    1.
  11   -70.973929152  -688.383464318  1224.817083107  -0.24E-09    0.43E-06    0.23E-06     0.63E-02   0.46E+03   QNRc2DIIS    1.

       Convergence after 11 Macro Iterations
--

 *****************************************************************************************************************************
 *                                                                                                                           *
 *                                             SCF/KS-DFT Program, Final results                                             *
 *                                                                                                                           *
 *                                                                                                                           *
 *                                                                                                                           *
 *                                                       Final Results                                                       *
 *                                                                                                                           *
 *****************************************************************************************************************************

::    Total SCF energy                              -4070.9739291522
      One-electron energy                           -4688.3834643180
      Two-electron energy                            1224.8170831073
      Nuclear repulsion energy                       -607.4075479415
      Kinetic energy (interpolated)                  4018.9126957578
      Virial theorem                                    1.0129540593
      Total spin, S(S+1)                                0.0000000000
      Total spin, S                                     0.0000000000
      Max non-diagonal density matrix element           0.0000003052
      Max non-diagonal Fock matrix element              0.0000000719


      All orbitals with orbital energies smaller than  E(LUMO)+0.5 are printed

++    Molecular orbitals:
      -------------------

      Title: SCF orbitals

      Molecular orbitals for symmetry species 1: a  

          Orbital            1         2         3         4         5         6         7         8         9        10    
          Energy         -696.6575  -95.2320  -84.5072  -84.5072  -84.0976  -14.5289  -10.9970  -10.9970  -10.5389   -4.8470
          Occ. No.          2.0000    2.0000    2.0000    2.0000    2.0000    2.0000    2.0000    2.0000    2.0000    2.0000

        1 NB     1s         1.0000    0.0002    0.0000    0.0000   -0.0002   -0.0001    0.0000    0.0000    0.0000   -0.0000
        2 NB     2s        -0.0002    0.9991    0.0000    0.0000   -0.0427    0.0007    0.0000    0.0000   -0.0015   -0.0000
        3 NB     3s         0.0001   -0.0010   -0.0000   -0.0000    0.0006    0.9924    0.0000   -0.0000   -0.0901   -0.0000
        4 NB     4s        -0.0000    0.0008    0.0000   -0.0000   -0.0003    0.0579    0.0000    0.0000   -0.0171   -0.0000
        5 NB     5s         0.0000   -0.0002   -0.0000    0.0000    0.0001   -0.0121   -0.0000   -0.0000    0.0034    0.0000
        6 NB     6s        -0.0000    0.0003    0.0000   -0.0000   -0.0001    0.0145    0.0000    0.0000   -0.0040   -0.0000
        7 NB     7s         0.0000   -0.0008   -0.0000    0.0000    0.0003   -0.0336   -0.0000   -0.0000    0.0089    0.0000
        8 NB     8s        -0.0000    0.0008    0.0000    0.0000   -0.0003    0.0249    0.0000   -0.0000   -0.0063   -0.0000
        9 NB     9s         0.0000   -0.0012   -0.0000   -0.0000    0.0004   -0.0232   -0.0000    0.0000    0.0056    0.0000
       10 NB    10s        -0.0001    0.0024    0.0000   -0.0000   -0.0007    0.0105    0.0000    0.0000   -0.0026   -0.0000
       11 NB     2px       -0.0000   -0.0000    1.0000    0.0000    0.0000    0.0000    0.0001    0.0000   -0.0000   -0.0002
       12 NB     3px        0.0000   -0.0000   -0.0011   -0.0000    0.0000   -0.0000    0.9903    0.0000   -0.0000   -0.0029
       13 NB     4px       -0.0000    0.0000    0.0007    0.0000   -0.0000    0.0000    0.0660    0.0000   -0.0000    0.0013
       14 NB     5px        0.0000   -0.0000   -0.0002   -0.0000    0.0000   -0.0000   -0.0186   -0.0000    0.0000   -0.0004
       15 NB     6px       -0.0000    0.0000    0.0007    0.0000   -0.0000   -0.0000    0.0413    0.0000   -0.0000    0.0008
       16 NB     7px        0.0000   -0.0000   -0.0007   -0.0000    0.0000    0.0000   -0.0298   -0.0000    0.0000   -0.0006
       17 NB     8px       -0.0000    0.0000    0.0010    0.0000   -0.0000   -0.0000    0.0262    0.0000   -0.0000    0.0006
       18 NB     9px        0.0000   -0.0000   -0.0013   -0.0000   -0.0000    0.0000   -0.0173   -0.0000    0.0000   -0.0005
       19 NB    10px       -0.0000    0.0000    0.0020    0.0000    0.0000   -0.0000    0.0065    0.0000   -0.0000    0.0004
       20 NB     2py        0.0000    0.0000   -0.0000    1.0000    0.0000    0.0000   -0.0000    0.0001   -0.0000   -0.0000
       21 NB     3py       -0.0000   -0.0000    0.0000   -0.0011   -0.0000    0.0000   -0.0000    0.9903    0.0000   -0.0000
       22 NB     4py        0.0000    0.0000   -0.0000    0.0007    0.0000   -0.0000   -0.0000    0.0660    0.0000    0.0000
       23 NB     5py       -0.0000   -0.0000    0.0000   -0.0002   -0.0000    0.0000    0.0000   -0.0186    0.0000   -0.0000
       24 NB     6py        0.0000    0.0000   -0.0000    0.0007    0.0000   -0.0000   -0.0000    0.0413    0.0000    0.0000
       25 NB     7py       -0.0000   -0.0000    0.0000   -0.0007    0.0000    0.0000    0.0000   -0.0298   -0.0000   -0.0000
       26 NB     8py        0.0000    0.0000   -0.0000    0.0010    0.0000   -0.0000   -0.0000    0.0262    0.0000    0.0000
       27 NB     9py       -0.0000   -0.0000    0.0000   -0.0013   -0.0000    0.0000    0.0000   -0.0173   -0.0000   -0.0000
       28 NB    10py        0.0000    0.0000   -0.0000    0.0020    0.0000   -0.0000   -0.0000    0.0065    0.0000    0.0000
       29 NB     2pz        0.0002    0.0427   -0.0000   -0.0000    0.9991   -0.0004    0.0000   -0.0000    0.0025    0.0000
       30 NB     3pz       -0.0000    0.0013    0.0000    0.0000   -0.0031    0.0910    0.0000   -0.0000    0.9883    0.0000
       31 NB     4pz        0.0000   -0.0004   -0.0000   -0.0000    0.0013   -0.0006    0.0000   -0.0000    0.0812    0.0000
       32 NB     5pz       -0.0000    0.0001    0.0000    0.0000   -0.0005    0.0002   -0.0000    0.0000   -0.0228   -0.0000
       33 NB     6pz        0.0000   -0.0004   -0.0000   -0.0000    0.0013   -0.0005    0.0000   -0.0000    0.0506    0.0000
       34 NB     7pz       -0.0000    0.0004    0.0000    0.0000   -0.0013    0.0003   -0.0000    0.0000   -0.0364   -0.0000
       35 NB     8pz        0.0000   -0.0006   -0.0000   -0.0000    0.0019   -0.0003    0.0000   -0.0000    0.0320    0.0000
       36 NB     9pz       -0.0000    0.0007    0.0000    0.0000   -0.0022    0.0001   -0.0000    0.0000   -0.0213   -0.0000
       37 NB    10pz        0.0001   -0.0010   -0.0000   -0.0000    0.0034    0.0004    0.0000    0.0000    0.0080    0.0000
       38 NB     3d2-      -0.0000   -0.0000   -0.0000    0.0037    0.0000    0.0000   -0.0000    0.0537    0.0000   -0.0000
       39 NB     4d2-      -0.0000   -0.0000    0.0000   -0.0007   -0.0000   -0.0000    0.0000   -0.0029   -0.0000   -0.0000
       40 NB     5d2-       0.0000    0.0000   -0.0000    0.0008    0.0000    0.0000   -0.0000    0.0030    0.0000    0.0000
       41 NB     6d2-      -0.0000   -0.0000    0.0000   -0.0007   -0.0000   -0.0000    0.0000   -0.0026   -0.0000   -0.0000
       42 NB     7d2-       0.0000    0.0000   -0.0000    0.0007    0.0000    0.0000   -0.0000    0.0023    0.0000    0.0000
       43 NB     8d2-      -0.0000   -0.0000    0.0000   -0.0012   -0.0000   -0.0000    0.0000   -0.0028   -0.0000   -0.0000
       44 NB     9d2-       0.0000    0.0000   -0.0000    0.0013    0.0000    0.0000   -0.0000    0.0021    0.0000    0.0000
       45 NB    10d2-       0.0000    0.0000   -0.0000    0.0020    0.0000    0.0000   -0.0000    0.0008   -0.0000    0.0000
       46 NB     3d1-       0.0000    0.0000   -0.0000    0.0061    0.0000    0.0000   -0.0000    0.0896    0.0000    0.0000
       47 NB     4d1-       0.0000   -0.0000    0.0000   -0.0012   -0.0000   -0.0000    0.0000   -0.0039   -0.0000    0.0000
       48 NB     5d1-      -0.0000    0.0000   -0.0000    0.0013    0.0000    0.0000   -0.0000    0.0038    0.0000   -0.0000
       49 NB     6d1-       0.0000   -0.0000    0.0000   -0.0012   -0.0000   -0.0000    0.0000   -0.0033   -0.0000    0.0000
       50 NB     7d1-      -0.0000    0.0000   -0.0000    0.0012    0.0000    0.0000   -0.0000    0.0029    0.0000   -0.0000
       51 NB     8d1-       0.0000   -0.0000    0.0000   -0.0020   -0.0000   -0.0000    0.0000   -0.0032   -0.0000    0.0000
       52 NB     9d1-       0.0000    0.0000   -0.0000    0.0023    0.0000    0.0000   -0.0000    0.0021    0.0000   -0.0000
       53 NB    10d1-       0.0000    0.0000   -0.0000    0.0036    0.0000    0.0000    0.0000   -0.0003   -0.0000   -0.0000
       54 NB     3d0       -0.0000   -0.0029    0.0000    0.0000   -0.0029   -0.0282    0.0000    0.0000   -0.0438   -0.0000
       55 NB     4d0        0.0000    0.0006   -0.0000   -0.0000    0.0006    0.0021    0.0000   -0.0000    0.0036   -0.0000
       56 NB     5d0       -0.0000   -0.0006    0.0000    0.0000   -0.0006   -0.0021   -0.0000   -0.0000   -0.0037    0.0000
       57 NB     6d0        0.0000    0.0006   -0.0000   -0.0000    0.0006    0.0018    0.0000   -0.0000    0.0033   -0.0000
       58 NB     7d0       -0.0000   -0.0006    0.0000    0.0000   -0.0006   -0.0016   -0.0000    0.0000   -0.0031    0.0000
       59 NB     8d0        0.0000    0.0010   -0.0000   -0.0000    0.0009    0.0018    0.0000   -0.0000    0.0040   -0.0000
       60 NB     9d0       -0.0000   -0.0011    0.0000    0.0000   -0.0010   -0.0013   -0.0000    0.0000   -0.0034    0.0000
       61 NB    10d0       -0.0000   -0.0017    0.0000    0.0000   -0.0014   -0.0000   -0.0000    0.0000   -0.0027    0.0000
       62 NB     3d1+      -0.0000    0.0000    0.0061    0.0000   -0.0000    0.0000    0.0896    0.0000   -0.0000    0.5276
       63 NB     4d1+       0.0000    0.0000   -0.0012   -0.0000   -0.0000   -0.0000   -0.0039   -0.0000    0.0000    0.0497
       64 NB     5d1+      -0.0000   -0.0000    0.0013    0.0000    0.0000    0.0000    0.0038    0.0000   -0.0000   -0.0428
       65 NB     6d1+       0.0000    0.0000   -0.0012   -0.0000   -0.0000   -0.0000   -0.0033   -0.0000    0.0000    0.0318
       66 NB     7d1+      -0.0000   -0.0000    0.0012    0.0000    0.0000    0.0000    0.0029    0.0000   -0.0000   -0.0242
       67 NB     8d1+       0.0000    0.0000   -0.0020   -0.0000   -0.0000   -0.0000   -0.0032   -0.0000    0.0000    0.0233
       68 NB     9d1+      -0.0000   -0.0000    0.0023    0.0000    0.0000    0.0000    0.0021    0.0000    0.0000   -0.0161
       69 NB    10d1+      -0.0000   -0.0000    0.0036    0.0000    0.0000   -0.0000   -0.0003   -0.0000    0.0000   -0.0123
       70 NB     3d2+       0.0000    0.0000   -0.0037   -0.0000   -0.0000    0.0000   -0.0537   -0.0000   -0.0000    0.8347
       71 NB     4d2+      -0.0000   -0.0000    0.0007    0.0000    0.0000   -0.0000    0.0029    0.0000    0.0000    0.0801
       72 NB     5d2+       0.0000    0.0000   -0.0008   -0.0000   -0.0000    0.0000   -0.0030   -0.0000   -0.0000   -0.0691
       73 NB     6d2+      -0.0000   -0.0000    0.0007    0.0000    0.0000   -0.0000    0.0026    0.0000    0.0000    0.0515
       74 NB     7d2+       0.0000    0.0000   -0.0007   -0.0000   -0.0000    0.0000   -0.0023   -0.0000   -0.0000   -0.0393
       75 NB     8d2+      -0.0000   -0.0000    0.0012    0.0000    0.0000   -0.0000    0.0028    0.0000    0.0000    0.0381
       76 NB     9d2+       0.0000    0.0000   -0.0013   -0.0000   -0.0000    0.0000   -0.0021   -0.0000   -0.0000   -0.0266
       77 NB    10d2+       0.0000    0.0000   -0.0020   -0.0000   -0.0000    0.0000   -0.0008   -0.0000   -0.0000   -0.0207
       78 NB     4f3-      -0.0000    0.0000   -0.0000    0.0000    0.0000    0.0000   -0.0000    0.0000   -0.0000    0.0000
       79 NB     5f3-       0.0000    0.0000   -0.0000    0.0000    0.0000    0.0000   -0.0000    0.0000   -0.0000    0.0000
       80 NB     6f3-      -0.0000   -0.0000   -0.0000    0.0000   -0.0000   -0.0000   -0.0000   -0.0000    0.0000   -0.0000
       81 NB     7f3-       0.0000   -0.0000    0.0000    0.0000   -0.0000    0.0000   -0.0000    0.0000    0.0000    0.0000
       82 NB     8f3-      -0.0000   -0.0000   -0.0000    0.0000   -0.0000    0.0000   -0.0000    0.0000    0.0000    0.0000
       83 NB     4f2-      -0.0000   -0.0000    0.0000   -0.0000   -0.0000   -0.0000    0.0000   -0.0003   -0.0000   -0.0000
       84 NB     5f2-      -0.0000    0.0000    0.0000   -0.0000   -0.0000    0.0000    0.0000   -0.0001    0.0000   -0.0000
       85 NB     6f2-       0.0000   -0.0000    0.0000   -0.0000   -0.0000   -0.0000    0.0000   -0.0001   -0.0000    0.0000
       86 NB     7f2-      -0.0000    0.0000    0.0000   -0.0000   -0.0000    0.0000    0.0000   -0.0002    0.0000   -0.0000
       87 NB     8f2-      -0.0000   -0.0000    0.0000   -0.0001   -0.0000   -0.0000    0.0000   -0.0010   -0.0000   -0.0000
       88 NB     4f1-       0.0000    0.0000    0.0000   -0.0000   -0.0000   -0.0000    0.0000   -0.0006   -0.0000    0.0000
       89 NB     5f1-       0.0000   -0.0000    0.0000   -0.0000   -0.0000   -0.0000    0.0000   -0.0005   -0.0000    0.0000
       90 NB     6f1-       0.0000    0.0000    0.0000   -0.0000   -0.0000    0.0000   -0.0000    0.0003   -0.0000   -0.0000
       91 NB     7f1-       0.0000   -0.0000    0.0000   -0.0000    0.0000   -0.0000    0.0000   -0.0005   -0.0000    0.0000
       92 NB     8f1-       0.0000   -0.0000    0.0000   -0.0000   -0.0000   -0.0000    0.0000   -0.0010   -0.0000    0.0000
       93 NB     4f0        0.0000   -0.0001   -0.0000    0.0000   -0.0000   -0.0014   -0.0000   -0.0000   -0.0008    0.0000
       94 NB     5f0        0.0000   -0.0000   -0.0000    0.0000   -0.0000   -0.0009   -0.0000   -0.0000   -0.0006    0.0000
       95 NB     6f0       -0.0000   -0.0000    0.0000    0.0000   -0.0000    0.0003    0.0000    0.0000    0.0004   -0.0000
       96 NB     7f0        0.0000   -0.0000   -0.0000   -0.0000   -0.0000   -0.0010   -0.0000   -0.0000   -0.0006    0.0000
       97 NB     8f0        0.0000   -0.0002   -0.0000    0.0000   -0.0001   -0.0029   -0.0000   -0.0000   -0.0013    0.0000
       98 NB     4f1+      -0.0000    0.0000   -0.0000   -0.0000    0.0000    0.0000   -0.0006   -0.0000    0.0000    0.0016
       99 NB     5f1+      -0.0000    0.0000   -0.0000   -0.0000    0.0000    0.0000   -0.0005   -0.0000    0.0000    0.0013
      100 NB     6f1+       0.0000    0.0000   -0.0000   -0.0000   -0.0000   -0.0000    0.0003    0.0000   -0.0000   -0.0006
      101 NB     7f1+      -0.0000    0.0000   -0.0000   -0.0000    0.0000    0.0000   -0.0005   -0.0000    0.0000    0.0008
      102 NB     8f1+       0.0000    0.0000   -0.0000   -0.0000   -0.0000    0.0000   -0.0010   -0.0000    0.0000    0.0022
      103 NB     4f2+       0.0000   -0.0000    0.0000    0.0000    0.0000   -0.0000    0.0003    0.0000    0.0000    0.0030
      104 NB     5f2+       0.0000   -0.0000    0.0000    0.0000    0.0000   -0.0000    0.0001    0.0000    0.0000    0.0022
      105 NB     6f2+      -0.0000   -0.0000    0.0000    0.0000    0.0000   -0.0000    0.0001    0.0000   -0.0000   -0.0007
      106 NB     7f2+       0.0000   -0.0000    0.0000    0.0000    0.0000   -0.0000    0.0002    0.0000    0.0000    0.0013
      107 NB     8f2+      -0.0000   -0.0000    0.0001    0.0000    0.0000   -0.0000    0.0010    0.0000    0.0000    0.0045
      108 NB     4f3+       0.0000   -0.0000   -0.0000   -0.0000    0.0000   -0.0008    0.0000    0.0000    0.0004   -0.0000
      109 NB     5f3+       0.0000   -0.0000   -0.0000   -0.0000    0.0000   -0.0006    0.0000   -0.0000    0.0002   -0.0000
      110 NB     6f3+      -0.0000   -0.0000    0.0000   -0.0000    0.0000    0.0002   -0.0000    0.0000    0.0001    0.0000
      111 NB     7f3+       0.0000   -0.0000   -0.0000   -0.0000    0.0000   -0.0006    0.0000    0.0000    0.0003   -0.0000
      112 NB     8f3+       0.0000   -0.0001   -0.0000   -0.0000    0.0001   -0.0018    0.0000    0.0000    0.0013   -0.0000
      113 NB     5g4-      -0.0000   -0.0000    0.0000   -0.0000   -0.0000   -0.0000    0.0000   -0.0004   -0.0000    0.0000
      114 NB     6g4-       0.0000    0.0000   -0.0000    0.0000    0.0000    0.0000   -0.0000    0.0005    0.0000   -0.0000
      115 NB     7g4-      -0.0000    0.0000    0.0000   -0.0000   -0.0000   -0.0000    0.0000   -0.0009   -0.0000    0.0000
      116 NB     8g4-       0.0000   -0.0000   -0.0000    0.0001    0.0000    0.0000   -0.0000    0.0014    0.0000   -0.0000
      117 NB     5g3-      -0.0000   -0.0000    0.0000   -0.0000   -0.0000   -0.0000    0.0000   -0.0000    0.0000   -0.0000
      118 NB     6g3-      -0.0000    0.0000   -0.0000    0.0000   -0.0000   -0.0000   -0.0000    0.0000    0.0000   -0.0000
      119 NB     7g3-       0.0000   -0.0000    0.0000   -0.0000    0.0000    0.0000    0.0000   -0.0000    0.0000    0.0000
      120 NB     8g3-      -0.0000   -0.0000   -0.0000    0.0000   -0.0000   -0.0000   -0.0000    0.0000   -0.0000   -0.0000
      121 NB     5g2-       0.0000    0.0000   -0.0000    0.0000    0.0000   -0.0000    0.0000   -0.0000   -0.0000    0.0000
      122 NB     6g2-      -0.0000   -0.0000    0.0000   -0.0000    0.0000    0.0000   -0.0000    0.0000   -0.0000   -0.0000
      123 NB     7g2-       0.0000    0.0000   -0.0000    0.0000    0.0000   -0.0000    0.0000   -0.0000    0.0000    0.0000
      124 NB     8g2-      -0.0000   -0.0000    0.0000   -0.0000   -0.0000    0.0000   -0.0000    0.0000   -0.0000   -0.0000
      125 NB     5g1-      -0.0000    0.0000    0.0000   -0.0000   -0.0000    0.0000    0.0000   -0.0005   -0.0000   -0.0000
      126 NB     6g1-       0.0000   -0.0000   -0.0000    0.0000    0.0000    0.0000   -0.0000    0.0007    0.0000    0.0000
      127 NB     7g1-      -0.0000   -0.0000    0.0000   -0.0001   -0.0000   -0.0000    0.0000   -0.0012   -0.0000   -0.0000
      128 NB     8g1-       0.0000    0.0000   -0.0000    0.0001    0.0000    0.0000   -0.0000    0.0018    0.0000    0.0000
      129 NB     5g0       -0.0000   -0.0000    0.0000    0.0000   -0.0000   -0.0001   -0.0000   -0.0000   -0.0007   -0.0000
      130 NB     6g0        0.0000    0.0000   -0.0000   -0.0000    0.0000    0.0001    0.0000   -0.0000    0.0010    0.0000
      131 NB     7g0       -0.0000   -0.0000    0.0000    0.0000   -0.0001   -0.0002   -0.0000    0.0000   -0.0017   -0.0000
      132 NB     8g0        0.0000    0.0000   -0.0000   -0.0000    0.0001    0.0003    0.0000   -0.0000    0.0027    0.0000
      133 NB     5g1+       0.0000   -0.0000   -0.0000   -0.0000    0.0000   -0.0000   -0.0005   -0.0000    0.0000   -0.0004
      134 NB     6g1+       0.0000    0.0000    0.0000    0.0000   -0.0000    0.0000    0.0007    0.0000   -0.0000    0.0005
      135 NB     7g1+      -0.0000   -0.0000   -0.0001   -0.0000    0.0000   -0.0000   -0.0012   -0.0000    0.0000   -0.0008
      136 NB     8g1+       0.0000    0.0000    0.0001    0.0000   -0.0000    0.0000    0.0018    0.0000   -0.0000    0.0012
      137 NB     5g2+       0.0000    0.0000   -0.0000   -0.0000   -0.0000    0.0000    0.0000    0.0000   -0.0000   -0.0003
      138 NB     6g2+      -0.0000   -0.0000    0.0000    0.0000    0.0000   -0.0000   -0.0000   -0.0000    0.0000    0.0003
      139 NB     7g2+       0.0000    0.0000   -0.0000   -0.0000   -0.0000    0.0000    0.0000    0.0000   -0.0000   -0.0004
      140 NB     8g2+      -0.0000   -0.0000    0.0000    0.0000    0.0000   -0.0000   -0.0000   -0.0000    0.0000    0.0006
      141 NB     5g3+       0.0000    0.0000    0.0000    0.0000   -0.0000    0.0002   -0.0000    0.0000   -0.0004    0.0000
      142 NB     6g3+      -0.0000   -0.0000   -0.0000   -0.0000    0.0000   -0.0003    0.0000   -0.0000    0.0006   -0.0000
      143 NB     7g3+       0.0000    0.0001    0.0000    0.0000   -0.0001    0.0007   -0.0000    0.0000   -0.0010    0.0000
      144 NB     8g3+      -0.0000   -0.0001   -0.0000   -0.0000    0.0001   -0.0011    0.0000   -0.0000    0.0016   -0.0000
      145 NB     5g4+      -0.0000   -0.0000   -0.0000   -0.0000    0.0000   -0.0000   -0.0004   -0.0000    0.0000    0.0001
      146 NB     6g4+       0.0000    0.0000    0.0000    0.0000   -0.0000    0.0000    0.0005    0.0000   -0.0000   -0.0001
      147 NB     7g4+      -0.0000   -0.0000   -0.0000   -0.0000    0.0000   -0.0000   -0.0009   -0.0000    0.0000    0.0002
      148 NB     8g4+       0.0000    0.0000    0.0001    0.0000   -0.0000    0.0000    0.0014    0.0000   -0.0000   -0.0003
      149 NB     6h5-       0.0000   -0.0000   -0.0000    0.0000   -0.0000    0.0000   -0.0000    0.0000    0.0000    0.0000
      150 NB     7h5-      -0.0000    0.0000    0.0000   -0.0000    0.0000    0.0000    0.0000   -0.0000    0.0000   -0.0000
      151 NB     6h4-      -0.0000    0.0000   -0.0000    0.0000    0.0000    0.0000   -0.0000    0.0001    0.0000   -0.0000
      152 NB     7h4-       0.0000   -0.0000    0.0000   -0.0000   -0.0000   -0.0000    0.0000   -0.0001   -0.0000    0.0000
      153 NB     6h3-      -0.0000   -0.0000    0.0000    0.0000   -0.0000   -0.0000   -0.0000    0.0000    0.0000    0.0000
      154 NB     7h3-       0.0000    0.0000   -0.0000   -0.0000    0.0000    0.0000    0.0000   -0.0000    0.0000    0.0000
      155 NB     6h2-       0.0000    0.0000   -0.0000    0.0000    0.0000    0.0000   -0.0000    0.0000    0.0000    0.0000
      156 NB     7h2-      -0.0000   -0.0000    0.0000   -0.0000   -0.0000   -0.0000    0.0000   -0.0000   -0.0000   -0.0000
      157 NB     6h1-       0.0000   -0.0000   -0.0000    0.0000   -0.0000   -0.0000    0.0000   -0.0000   -0.0000   -0.0000
      158 NB     7h1-      -0.0000    0.0000    0.0000   -0.0000   -0.0000    0.0000   -0.0000    0.0000    0.0000    0.0000
      159 NB     6h0        0.0000   -0.0000    0.0000   -0.0000   -0.0000   -0.0000    0.0000    0.0000   -0.0000    0.0000
      160 NB     7h0       -0.0000    0.0000   -0.0000   -0.0000    0.0000    0.0000   -0.0000   -0.0000    0.0000   -0.0000
      161 NB     6h1+      -0.0000    0.0000    0.0000    0.0000   -0.0000    0.0000   -0.0000   -0.0000   -0.0000   -0.0002
      162 NB     7h1+       0.0000   -0.0000   -0.0000   -0.0000    0.0000   -0.0000    0.0000    0.0000    0.0000    0.0002
      163 NB     6h2+       0.0000   -0.0000   -0.0000   -0.0000    0.0000   -0.0000   -0.0000   -0.0000    0.0000   -0.0002
      164 NB     7h2+      -0.0000    0.0000    0.0000    0.0000   -0.0000    0.0000    0.0000    0.0000   -0.0000    0.0002
      165 NB     6h3+       0.0000   -0.0000   -0.0000    0.0000    0.0000   -0.0000    0.0000    0.0000    0.0001    0.0000
      166 NB     7h3+      -0.0000    0.0000    0.0000    0.0000   -0.0000    0.0000   -0.0000   -0.0000   -0.0001   -0.0000
      167 NB     6h4+      -0.0000    0.0000    0.0000    0.0000   -0.0000    0.0000    0.0001    0.0000   -0.0000   -0.0001
      168 NB     7h4+       0.0000   -0.0000   -0.0000   -0.0000    0.0000   -0.0000   -0.0001   -0.0000    0.0000    0.0001
      169 NB     6h5+       0.0000    0.0000   -0.0000   -0.0000   -0.0000    0.0000   -0.0000   -0.0000   -0.0000   -0.0002
      170 NB     7h5+      -0.0000   -0.0000    0.0000    0.0000    0.0000   -0.0000    0.0000    0.0000    0.0000    0.0002

          Orbital           11        12        13        14        15        16        17        18        19        20    
          Energy           -4.8470   -4.2415   -4.1645   -4.1645   -1.9174   -1.0576   -1.0576   -1.0144   -0.1453   -0.0844
          Occ. No.          2.0000    2.0000    2.0000    2.0000    2.0000    2.0000    2.0000    2.0000    0.0000    0.0000

        1 NB     1s        -0.0000    0.0000   -0.0000    0.0000    0.0000   -0.0000   -0.0000   -0.0000   -0.0000    0.0000
        2 NB     2s        -0.0000    0.0023   -0.0000    0.0000   -0.0006   -0.0000   -0.0000    0.0003    0.0001    0.0000
        3 NB     3s        -0.0000    0.0208    0.0000   -0.0000   -0.0479   -0.0000    0.0000    0.0066    0.0089    0.0000
        4 NB     4s        -0.0000    0.0325    0.0000   -0.0000    0.9670    0.0000   -0.0000   -0.0467   -0.0756   -0.0000
        5 NB     5s         0.0000   -0.0034    0.0000    0.0000    0.1380    0.0000    0.0000   -0.0306    0.9156    0.0000
        6 NB     6s        -0.0000    0.0038    0.0000   -0.0000   -0.1212   -0.0000   -0.0000    0.0214    0.3902    0.0000
        7 NB     7s         0.0000   -0.0079    0.0000    0.0000    0.1533    0.0000    0.0000   -0.0200   -0.0390    0.0000
        8 NB     8s        -0.0000    0.0049    0.0000   -0.0000   -0.0250    0.0000    0.0000    0.0001   -0.0161    0.0000
        9 NB     9s         0.0000   -0.0040    0.0000   -0.0000    0.0085    0.0000    0.0000   -0.0013   -0.0086    0.0000
       10 NB    10s        -0.0000    0.0023   -0.0000    0.0000   -0.0051   -0.0000    0.0000    0.0007    0.0005    0.0000
       11 NB     2px       -0.0000   -0.0000    0.0000   -0.0059   -0.0000   -0.0006   -0.0000    0.0000    0.0000    0.0001
       12 NB     3px       -0.0000   -0.0000    0.0000   -0.0922   -0.0000   -0.0535   -0.0000    0.0000    0.0000    0.0083
       13 NB     4px        0.0000   -0.0000    0.0000   -0.0728   -0.0000    0.9496    0.0000   -0.0000   -0.0000   -0.0768
       14 NB     5px       -0.0000    0.0000   -0.0000    0.0153    0.0000    0.2126    0.0000   -0.0000   -0.0000    0.7717
       15 NB     6px        0.0000   -0.0000    0.0000   -0.0298   -0.0000   -0.2060   -0.0000    0.0000   -0.0000    0.4732
       16 NB     7px       -0.0000    0.0000   -0.0000    0.0184    0.0000    0.0226    0.0000   -0.0000   -0.0000    0.3809
       17 NB     8px        0.0000   -0.0000    0.0000   -0.0145   -0.0000   -0.0012   -0.0000    0.0000   -0.0000    0.1542
       18 NB     9px       -0.0000    0.0000   -0.0000    0.0100    0.0000    0.0175    0.0000   -0.0000   -0.0000    0.0526
       19 NB    10px        0.0000   -0.0000    0.0000   -0.0051    0.0000   -0.0007   -0.0000    0.0000   -0.0000    0.0076
       20 NB     2py        0.0002    0.0000   -0.0059   -0.0000    0.0000    0.0000   -0.0006    0.0000   -0.0000   -0.0000
       21 NB     3py        0.0029   -0.0000   -0.0922   -0.0000    0.0000    0.0000   -0.0535   -0.0000    0.0000   -0.0000
       22 NB     4py       -0.0013   -0.0000   -0.0728   -0.0000    0.0000   -0.0000    0.9496    0.0000   -0.0000    0.0000
       23 NB     5py        0.0004   -0.0000    0.0153    0.0000   -0.0000   -0.0000    0.2126    0.0000   -0.0000   -0.0000
       24 NB     6py       -0.0008   -0.0000   -0.0298   -0.0000    0.0000    0.0000   -0.2060   -0.0000   -0.0000   -0.0000
       25 NB     7py        0.0006    0.0000    0.0184    0.0000   -0.0000   -0.0000    0.0226   -0.0000   -0.0000   -0.0000
       26 NB     8py       -0.0006   -0.0000   -0.0145   -0.0000    0.0000    0.0000   -0.0012   -0.0000   -0.0000   -0.0000
       27 NB     9py        0.0005    0.0000    0.0100    0.0000   -0.0000   -0.0000    0.0175    0.0000   -0.0000   -0.0000
       28 NB    10py       -0.0004   -0.0000   -0.0051   -0.0000    0.0000    0.0000   -0.0007   -0.0000    0.0000   -0.0000
       29 NB     2pz        0.0000    0.0025    0.0000   -0.0000    0.0001   -0.0000    0.0000   -0.0010   -0.0000    0.0000
       30 NB     3pz        0.0000    0.0386   -0.0000    0.0000    0.0038   -0.0000   -0.0000   -0.0599   -0.0016    0.0000
       31 NB     4pz        0.0000    0.0410    0.0000    0.0000    0.0585    0.0000    0.0000    0.9411    0.0082   -0.0000
       32 NB     5pz       -0.0000   -0.0089    0.0000   -0.0000   -0.0015    0.0000   -0.0000    0.2351    0.0374    0.0000
       33 NB     6pz       -0.0000    0.0175   -0.0000    0.0000    0.0019   -0.0000   -0.0000   -0.2216    0.0048    0.0000
       34 NB     7pz        0.0000   -0.0110    0.0000   -0.0000   -0.0008    0.0000    0.0000    0.0223    0.0065    0.0000
       35 NB     8pz        0.0000    0.0090    0.0000    0.0000    0.0006   -0.0000   -0.0000   -0.0019    0.0016    0.0000
       36 NB     9pz        0.0000   -0.0065    0.0000   -0.0000   -0.0004    0.0000   -0.0000    0.0195    0.0009    0.0000
       37 NB    10pz        0.0000    0.0035    0.0000   -0.0000   -0.0001   -0.0000   -0.0000   -0.0010    0.0001    0.0000
       38 NB     3d2-       0.8347    0.0000    0.5160    0.0000   -0.0000   -0.0000    0.0232   -0.0000   -0.0000    0.0000
       39 NB     4d2-       0.0801    0.0000    0.0739    0.0000   -0.0000   -0.0000    0.0331   -0.0000   -0.0000    0.0000
       40 NB     5d2-      -0.0691   -0.0000   -0.0622   -0.0000    0.0000    0.0000   -0.0147   -0.0000   -0.0000    0.0000
       41 NB     6d2-       0.0515    0.0000    0.0454    0.0000   -0.0000   -0.0000    0.0061    0.0000   -0.0000    0.0000
       42 NB     7d2-      -0.0393   -0.0000   -0.0342   -0.0000    0.0000    0.0000   -0.0034    0.0000    0.0000    0.0000
       43 NB     8d2-       0.0381    0.0000    0.0329    0.0000   -0.0000   -0.0000    0.0033    0.0000    0.0000   -0.0000
       44 NB     9d2-      -0.0266    0.0000   -0.0234   -0.0000    0.0000    0.0000   -0.0028   -0.0000    0.0000   -0.0000
       45 NB    10d2-      -0.0207   -0.0000   -0.0184   -0.0000    0.0000    0.0000   -0.0016   -0.0000   -0.0000    0.0000
       46 NB     3d1-      -0.5276    0.0000    0.8177    0.0000    0.0000   -0.0000    0.0342    0.0000    0.0000    0.0000
       47 NB     4d1-      -0.0497    0.0000    0.1146    0.0000   -0.0000   -0.0000    0.0551   -0.0000   -0.0000    0.0000
       48 NB     5d1-       0.0428   -0.0000   -0.0964   -0.0000   -0.0000    0.0000   -0.0253   -0.0000   -0.0000    0.0000
       49 NB     6d1-      -0.0318    0.0000    0.0703    0.0000    0.0000   -0.0000    0.0105    0.0000   -0.0000    0.0000
       50 NB     7d1-       0.0242   -0.0000   -0.0528   -0.0000   -0.0000    0.0000   -0.0055   -0.0000   -0.0000    0.0000
       51 NB     8d1-      -0.0233    0.0000    0.0505    0.0000    0.0000   -0.0000    0.0048   -0.0000    0.0000   -0.0000
       52 NB     9d1-       0.0161   -0.0000   -0.0356   -0.0000   -0.0000    0.0000   -0.0042   -0.0000   -0.0000   -0.0000
       53 NB    10d1-       0.0123   -0.0000   -0.0277   -0.0000   -0.0000    0.0000   -0.0019   -0.0000   -0.0000    0.0000
       54 NB     3d0       -0.0000    0.9740   -0.0000    0.0000   -0.0265   -0.0000    0.0000   -0.0239    0.0020    0.0000
       55 NB     4d0        0.0000    0.1311   -0.0000    0.0000   -0.0182    0.0000    0.0000   -0.0270    0.0123   -0.0000
       56 NB     5d0        0.0000   -0.1106    0.0000   -0.0000    0.0121   -0.0000   -0.0000    0.0106   -0.0001    0.0000
       57 NB     6d0       -0.0000    0.0809   -0.0000    0.0000   -0.0069    0.0000    0.0000   -0.0042    0.0005    0.0000
       58 NB     7d0        0.0000   -0.0609    0.0000   -0.0000    0.0042   -0.0000   -0.0000    0.0028   -0.0005    0.0000
       59 NB     8d0       -0.0000    0.0584   -0.0000    0.0000   -0.0033   -0.0000    0.0000   -0.0034    0.0002    0.0000
       60 NB     9d0       -0.0000   -0.0411    0.0000   -0.0000    0.0026    0.0000   -0.0000    0.0028   -0.0003   -0.0000
       61 NB    10d0        0.0000   -0.0320    0.0000   -0.0000    0.0014    0.0000   -0.0000    0.0022   -0.0000   -0.0000
       62 NB     3d1+       0.0000    0.0000   -0.0000    0.8177    0.0000    0.0342    0.0000   -0.0000   -0.0000   -0.0026
       63 NB     4d1+       0.0000    0.0000   -0.0000    0.1146    0.0000    0.0551    0.0000   -0.0000   -0.0000   -0.0377
       64 NB     5d1+      -0.0000   -0.0000    0.0000   -0.0964   -0.0000   -0.0253   -0.0000    0.0000   -0.0000   -0.0169
       65 NB     6d1+       0.0000    0.0000   -0.0000    0.0703    0.0000    0.0105    0.0000   -0.0000   -0.0000   -0.0115
       66 NB     7d1+      -0.0000   -0.0000    0.0000   -0.0528   -0.0000   -0.0055   -0.0000    0.0000    0.0000   -0.0023
       67 NB     8d1+       0.0000    0.0000   -0.0000    0.0505    0.0000    0.0048    0.0000   -0.0000    0.0000    0.0006
       68 NB     9d1+      -0.0000   -0.0000    0.0000   -0.0356   -0.0000   -0.0042   -0.0000    0.0000    0.0000    0.0011
       69 NB    10d1+      -0.0000   -0.0000    0.0000   -0.0277   -0.0000   -0.0019   -0.0000    0.0000   -0.0000   -0.0001
       70 NB     3d2+       0.0000    0.0000    0.0000   -0.5160    0.0000   -0.0232   -0.0000    0.0000   -0.0000    0.0019
       71 NB     4d2+       0.0000    0.0000    0.0000   -0.0739    0.0000   -0.0331   -0.0000    0.0000   -0.0000    0.0244
       72 NB     5d2+      -0.0000   -0.0000   -0.0000    0.0622   -0.0000    0.0147    0.0000   -0.0000    0.0000    0.0139
       73 NB     6d2+       0.0000    0.0000    0.0000   -0.0454    0.0000   -0.0061   -0.0000    0.0000   -0.0000    0.0101
       74 NB     7d2+      -0.0000   -0.0000   -0.0000    0.0342   -0.0000    0.0034    0.0000   -0.0000    0.0000    0.0024
       75 NB     8d2+       0.0000    0.0000    0.0000   -0.0329    0.0000   -0.0033   -0.0000    0.0000   -0.0000   -0.0005
       76 NB     9d2+      -0.0000   -0.0000   -0.0000    0.0234   -0.0000    0.0028    0.0000   -0.0000    0.0000   -0.0009
       77 NB    10d2+      -0.0000   -0.0000   -0.0000    0.0184   -0.0000    0.0016    0.0000    0.0000    0.0000    0.0000
       78 NB     4f3-      -0.0000   -0.0000   -0.0000   -0.0000   -0.0000    0.0000   -0.0000    0.0000    0.0000   -0.0000
       79 NB     5f3-      -0.0000    0.0000   -0.0000   -0.0000    0.0000    0.0000   -0.0000    0.0000   -0.0000    0.0000
       80 NB     6f3-       0.0000    0.0000    0.0000    0.0000   -0.0000    0.0000   -0.0000   -0.0000   -0.0000    0.0000
       81 NB     7f3-      -0.0000   -0.0000   -0.0000   -0.0000   -0.0000   -0.0000    0.0000   -0.0000   -0.0000    0.0000
       82 NB     8f3-      -0.0000    0.0000   -0.0000   -0.0000    0.0000    0.0000   -0.0000   -0.0000    0.0000   -0.0000
       83 NB     4f2-       0.0030    0.0000    0.0045    0.0000   -0.0000   -0.0000    0.0018    0.0000    0.0000    0.0000
       84 NB     5f2-       0.0022    0.0000    0.0030    0.0000   -0.0000   -0.0000    0.0008    0.0000   -0.0000   -0.0000
       85 NB     6f2-      -0.0007    0.0000   -0.0003   -0.0000    0.0000   -0.0000    0.0000    0.0000   -0.0000   -0.0000
       86 NB     7f2-       0.0013   -0.0000    0.0012    0.0000   -0.0000    0.0000   -0.0005   -0.0000   -0.0000   -0.0000
       87 NB     8f2-       0.0045    0.0000    0.0077    0.0000   -0.0000   -0.0000    0.0027    0.0000    0.0000    0.0000
       88 NB     4f1-      -0.0016    0.0000    0.0023    0.0000   -0.0000    0.0000   -0.0012   -0.0000   -0.0000    0.0000
       89 NB     5f1-      -0.0013    0.0000    0.0019    0.0000    0.0000    0.0000   -0.0004   -0.0000   -0.0000   -0.0000
       90 NB     6f1-       0.0006   -0.0000   -0.0010   -0.0000    0.0000   -0.0000    0.0002    0.0000   -0.0000   -0.0000
       91 NB     7f1-      -0.0008    0.0000    0.0011    0.0000   -0.0000    0.0000   -0.0004   -0.0000   -0.0000   -0.0000
       92 NB     8f1-      -0.0022    0.0000    0.0026    0.0000    0.0000   -0.0000    0.0013    0.0000   -0.0000    0.0000
       93 NB     4f0        0.0000    0.0005   -0.0000    0.0000   -0.0022   -0.0000    0.0000   -0.0020    0.0004   -0.0000
       94 NB     5f0        0.0000    0.0009   -0.0000    0.0000   -0.0008   -0.0000   -0.0000   -0.0008   -0.0007    0.0000
       95 NB     6f0       -0.0000   -0.0012    0.0000   -0.0000    0.0010    0.0000   -0.0000    0.0005   -0.0002    0.0000
       96 NB     7f0        0.0000    0.0009   -0.0000    0.0000   -0.0010   -0.0000   -0.0000   -0.0006    0.0011    0.0000
       97 NB     8f0        0.0000   -0.0010   -0.0000    0.0000    0.0032    0.0000    0.0000    0.0014   -0.0020   -0.0000
       98 NB     4f1+       0.0000   -0.0000   -0.0000    0.0023    0.0000   -0.0012   -0.0000    0.0000   -0.0000   -0.0002
       99 NB     5f1+       0.0000   -0.0000   -0.0000    0.0019    0.0000   -0.0004   -0.0000    0.0000   -0.0000    0.0009
      100 NB     6f1+      -0.0000    0.0000    0.0000   -0.0010   -0.0000    0.0002    0.0000   -0.0000    0.0000    0.0009
      101 NB     7f1+       0.0000   -0.0000   -0.0000    0.0011    0.0000   -0.0004   -0.0000    0.0000   -0.0000    0.0008
      102 NB     8f1+       0.0000   -0.0000   -0.0000    0.0026    0.0000    0.0013    0.0000   -0.0000    0.0000   -0.0008
      103 NB     4f2+       0.0000    0.0000    0.0000   -0.0045   -0.0000   -0.0018   -0.0000    0.0000    0.0000    0.0005
      104 NB     5f2+       0.0000    0.0000    0.0000   -0.0030    0.0000   -0.0008   -0.0000    0.0000   -0.0000   -0.0001
      105 NB     6f2+      -0.0000   -0.0000   -0.0000    0.0003    0.0000   -0.0000   -0.0000   -0.0000   -0.0000   -0.0004
      106 NB     7f2+       0.0000    0.0000    0.0000   -0.0012   -0.0000    0.0005    0.0000    0.0000    0.0000   -0.0005
      107 NB     8f2+       0.0000    0.0000    0.0000   -0.0077    0.0000   -0.0027   -0.0000   -0.0000   -0.0000    0.0009
      108 NB     4f3+      -0.0000    0.0016    0.0000    0.0000   -0.0014    0.0000    0.0000   -0.0010    0.0003   -0.0000
      109 NB     5f3+      -0.0000    0.0010   -0.0000    0.0000   -0.0005    0.0000    0.0000   -0.0005   -0.0005   -0.0000
      110 NB     6f3+       0.0000   -0.0000   -0.0000   -0.0000    0.0006   -0.0000   -0.0000   -0.0001   -0.0001   -0.0000
      111 NB     7f3+      -0.0000    0.0004   -0.0000    0.0000   -0.0006    0.0000    0.0000    0.0005    0.0007   -0.0000
      112 NB     8f3+      -0.0000    0.0029   -0.0000    0.0000    0.0019    0.0000    0.0000   -0.0021   -0.0014    0.0000
      113 NB     5g4-      -0.0001   -0.0000    0.0003    0.0000   -0.0000    0.0000   -0.0002    0.0000   -0.0000   -0.0000
      114 NB     6g4-       0.0001    0.0000   -0.0004   -0.0000    0.0000   -0.0000    0.0002   -0.0000   -0.0000   -0.0000
      115 NB     7g4-      -0.0002    0.0000    0.0007    0.0000   -0.0000    0.0000   -0.0000    0.0000   -0.0000   -0.0000
      116 NB     8g4-       0.0003   -0.0000   -0.0011   -0.0000   -0.0000    0.0000   -0.0003   -0.0000    0.0000   -0.0000
      117 NB     5g3-       0.0000   -0.0000    0.0000    0.0000   -0.0000    0.0000    0.0000    0.0000    0.0000   -0.0000
      118 NB     6g3-      -0.0000   -0.0000   -0.0000   -0.0000    0.0000    0.0000   -0.0000    0.0000   -0.0000   -0.0000
      119 NB     7g3-       0.0000    0.0000    0.0000    0.0000   -0.0000   -0.0000    0.0000   -0.0000   -0.0000   -0.0000
      120 NB     8g3-      -0.0000   -0.0000   -0.0000   -0.0000   -0.0000    0.0000   -0.0000   -0.0000    0.0000   -0.0000
      121 NB     5g2-      -0.0003    0.0000   -0.0004   -0.0000    0.0000    0.0000   -0.0001    0.0000   -0.0000   -0.0000
      122 NB     6g2-       0.0003   -0.0000    0.0005    0.0000    0.0000   -0.0000    0.0001    0.0000    0.0000   -0.0000
      123 NB     7g2-      -0.0004    0.0000   -0.0008   -0.0000   -0.0000    0.0000   -0.0001   -0.0000   -0.0000   -0.0000
      124 NB     8g2-       0.0006   -0.0000    0.0013    0.0000    0.0000   -0.0000    0.0001    0.0000    0.0000   -0.0000
      125 NB     5g1-       0.0004   -0.0000   -0.0003   -0.0000    0.0000    0.0000   -0.0004    0.0000   -0.0000   -0.0000
      126 NB     6g1-      -0.0005   -0.0000    0.0003    0.0000   -0.0000   -0.0000    0.0003   -0.0000   -0.0000   -0.0000
      127 NB     7g1-       0.0008    0.0000   -0.0003   -0.0000    0.0000    0.0000   -0.0001   -0.0000   -0.0000   -0.0000
      128 NB     8g1-      -0.0012    0.0000    0.0004    0.0000    0.0000    0.0000   -0.0003   -0.0000    0.0000   -0.0000
      129 NB     5g0       -0.0000   -0.0010   -0.0000   -0.0000   -0.0000   -0.0000    0.0000   -0.0002    0.0000    0.0000
      130 NB     6g0       -0.0000    0.0011   -0.0000    0.0000   -0.0000    0.0000    0.0000    0.0002    0.0000    0.0000
      131 NB     7g0        0.0000   -0.0017    0.0000   -0.0000    0.0000   -0.0000   -0.0000    0.0001    0.0000    0.0000
      132 NB     8g0        0.0000    0.0026    0.0000    0.0000   -0.0001   -0.0000    0.0000   -0.0007    0.0000    0.0000
      133 NB     5g1+      -0.0000    0.0000    0.0000   -0.0003    0.0000   -0.0004   -0.0000    0.0000   -0.0000    0.0002
      134 NB     6g1+       0.0000   -0.0000   -0.0000    0.0003    0.0000    0.0003    0.0000   -0.0000   -0.0000    0.0003
      135 NB     7g1+      -0.0000    0.0000    0.0000   -0.0003    0.0000   -0.0001   -0.0000   -0.0000   -0.0000    0.0002
      136 NB     8g1+       0.0000   -0.0000   -0.0000    0.0004   -0.0000   -0.0003   -0.0000    0.0000    0.0000    0.0001
      137 NB     5g2+      -0.0000    0.0000   -0.0000    0.0004   -0.0000    0.0001    0.0000   -0.0000    0.0000   -0.0000
      138 NB     6g2+       0.0000   -0.0000    0.0000   -0.0005    0.0000   -0.0001   -0.0000    0.0000    0.0000   -0.0000
      139 NB     7g2+      -0.0000    0.0000   -0.0000    0.0008   -0.0000    0.0001    0.0000   -0.0000    0.0000   -0.0000
      140 NB     8g2+       0.0000   -0.0000    0.0000   -0.0013    0.0000   -0.0001   -0.0000   -0.0000   -0.0000   -0.0000
      141 NB     5g3+       0.0000   -0.0001    0.0000   -0.0000   -0.0000   -0.0000   -0.0000   -0.0001    0.0000    0.0000
      142 NB     6g3+      -0.0000    0.0002   -0.0000    0.0000    0.0001    0.0000    0.0000    0.0001    0.0001    0.0000
      143 NB     7g3+       0.0000   -0.0003    0.0000   -0.0000   -0.0002   -0.0000   -0.0000    0.0001    0.0001    0.0000
      144 NB     8g3+      -0.0000    0.0005   -0.0000    0.0000    0.0004   -0.0000    0.0000   -0.0004   -0.0001    0.0000
      145 NB     5g4+       0.0000    0.0000   -0.0000    0.0003    0.0000   -0.0002   -0.0000    0.0000   -0.0000    0.0002
      146 NB     6g4+      -0.0000   -0.0000    0.0000   -0.0004   -0.0000    0.0002    0.0000   -0.0000   -0.0000    0.0002
      147 NB     7g4+       0.0000    0.0000   -0.0000    0.0007    0.0000   -0.0000   -0.0000   -0.0000   -0.0000    0.0002
      148 NB     8g4+      -0.0000   -0.0000    0.0000   -0.0011   -0.0000   -0.0003   -0.0000    0.0000    0.0000    0.0001
      149 NB     6h5-      -0.0002   -0.0000   -0.0002   -0.0000    0.0000    0.0000   -0.0000    0.0000   -0.0000    0.0000
      150 NB     7h5-       0.0002    0.0000    0.0002    0.0000   -0.0000   -0.0000    0.0000   -0.0000    0.0000    0.0000
      151 NB     6h4-       0.0001   -0.0000   -0.0002   -0.0000    0.0000   -0.0000    0.0001    0.0000   -0.0000    0.0000
      152 NB     7h4-      -0.0001    0.0000    0.0002    0.0000   -0.0000    0.0000   -0.0000   -0.0000   -0.0000   -0.0000
      153 NB     6h3-       0.0000    0.0000   -0.0000   -0.0000    0.0000   -0.0000    0.0000    0.0000   -0.0000    0.0000
      154 NB     7h3-      -0.0000    0.0000    0.0000   -0.0000   -0.0000    0.0000    0.0000    0.0000    0.0000   -0.0000
      155 NB     6h2-      -0.0002    0.0000   -0.0002   -0.0000    0.0000   -0.0000    0.0000    0.0000    0.0000    0.0000
      156 NB     7h2-       0.0002   -0.0000    0.0002    0.0000   -0.0000   -0.0000    0.0000   -0.0000   -0.0000    0.0000
      157 NB     6h1-       0.0002   -0.0000   -0.0003   -0.0000   -0.0000    0.0000   -0.0000   -0.0000   -0.0000    0.0000
      158 NB     7h1-      -0.0002    0.0000    0.0004    0.0000   -0.0000   -0.0000    0.0001   -0.0000    0.0000    0.0000
      159 NB     6h0       -0.0000   -0.0004   -0.0000   -0.0000    0.0000    0.0000    0.0000    0.0000    0.0000   -0.0000
      160 NB     7h0       -0.0000    0.0005   -0.0000    0.0000   -0.0000   -0.0000   -0.0000   -0.0000    0.0000    0.0000
      161 NB     6h1+      -0.0000    0.0000    0.0000   -0.0003   -0.0000   -0.0000   -0.0000   -0.0000   -0.0000   -0.0000
      162 NB     7h1+       0.0000   -0.0000   -0.0000    0.0004    0.0000    0.0001    0.0000   -0.0000   -0.0000   -0.0000
      163 NB     6h2+      -0.0000   -0.0000   -0.0000    0.0002   -0.0000   -0.0000   -0.0000    0.0000    0.0000    0.0000
      164 NB     7h2+       0.0000    0.0000    0.0000   -0.0002    0.0000   -0.0000   -0.0000   -0.0000   -0.0000    0.0000
      165 NB     6h3+       0.0000   -0.0001    0.0000   -0.0000    0.0000    0.0000   -0.0000    0.0001    0.0000   -0.0000
      166 NB     7h3+      -0.0000    0.0001   -0.0000    0.0000   -0.0000   -0.0000    0.0000   -0.0000    0.0000    0.0000
      167 NB     6h4+      -0.0000   -0.0000    0.0000   -0.0002    0.0000    0.0001    0.0000   -0.0000   -0.0000   -0.0000
      168 NB     7h4+       0.0000    0.0000   -0.0000    0.0002    0.0000   -0.0000   -0.0000    0.0000   -0.0000    0.0000
      169 NB     6h5+      -0.0000   -0.0000   -0.0000    0.0002   -0.0000    0.0000    0.0000   -0.0000   -0.0000    0.0000
      170 NB     7h5+       0.0000    0.0000    0.0000   -0.0002    0.0000   -0.0000   -0.0000    0.0000   -0.0000    0.0000

          Orbital           21        22        23        24        25        26        27        28        29        30    
          Energy           -0.0844   -0.0825   -0.0539   -0.0539   -0.0532   -0.0532   -0.0532   -0.0127    0.0311    0.0311
          Occ. No.          0.0000    0.0000    0.0000    0.0000    0.0000    0.0000    0.0000    0.0000    0.0000    0.0000

        1 NB     1s        -0.0000    0.0000    0.0000    0.0000   -0.0000    0.0000   -0.0000    0.0000   -0.0000   -0.0000
        2 NB     2s         0.0000   -0.0001    0.0000    0.0000   -0.0000   -0.0000   -0.0001   -0.0001   -0.0000   -0.0000
        3 NB     3s         0.0000   -0.0010    0.0000    0.0000   -0.0000   -0.0000   -0.0003   -0.0094   -0.0000   -0.0000
        4 NB     4s        -0.0000    0.0046   -0.0000   -0.0000    0.0000    0.0000    0.0002    0.0764    0.0000    0.0000
        5 NB     5s         0.0000   -0.0199   -0.0000   -0.0000    0.0000    0.0000    0.0017   -0.3063   -0.0000   -0.0000
        6 NB     6s         0.0000   -0.0377    0.0000    0.0000   -0.0000   -0.0000   -0.0135    0.7906    0.0000    0.0000
        7 NB     7s         0.0000   -0.0042    0.0000    0.0000   -0.0000   -0.0000   -0.0039    0.4544    0.0000    0.0000
        8 NB     8s         0.0000   -0.0028    0.0000    0.0000   -0.0000   -0.0000   -0.0021    0.2498    0.0000    0.0000
        9 NB     9s         0.0000   -0.0002    0.0000    0.0000   -0.0000   -0.0000   -0.0003    0.0594    0.0000    0.0000
       10 NB    10s         0.0000   -0.0001    0.0000    0.0000   -0.0000   -0.0000   -0.0001    0.0035    0.0000   -0.0000
       11 NB     2px        0.0000   -0.0000   -0.0000   -0.0000    0.0002    0.0000   -0.0000   -0.0000    0.0000    0.0000
       12 NB     3px        0.0000   -0.0000   -0.0003   -0.0000    0.0021    0.0000   -0.0000   -0.0000    0.0002    0.0000
       13 NB     4px       -0.0000    0.0000    0.0011    0.0000   -0.0095   -0.0000    0.0000    0.0000   -0.0001   -0.0000
       14 NB     5px        0.0000   -0.0000   -0.0048   -0.0000    0.0189    0.0000   -0.0000   -0.0000   -0.0000   -0.0000
       15 NB     6px        0.0000   -0.0000   -0.0041   -0.0000    0.0279    0.0000   -0.0000   -0.0000    0.0005    0.0000
       16 NB     7px        0.0000   -0.0000   -0.0034   -0.0000    0.0228    0.0000   -0.0000   -0.0000    0.0008    0.0000
       17 NB     8px        0.0000   -0.0000   -0.0016   -0.0000    0.0106    0.0000   -0.0000   -0.0000    0.0008    0.0000
       18 NB     9px        0.0000   -0.0000   -0.0005   -0.0000    0.0035    0.0000   -0.0000   -0.0000    0.0002    0.0000
       19 NB    10px        0.0000   -0.0000   -0.0001   -0.0000    0.0007    0.0000   -0.0000   -0.0000    0.0001    0.0000
       20 NB     2py        0.0001    0.0000   -0.0000    0.0000   -0.0000    0.0002   -0.0000   -0.0000    0.0000   -0.0000
       21 NB     3py        0.0083   -0.0000   -0.0000    0.0003   -0.0000    0.0021   -0.0000    0.0000    0.0000   -0.0002
       22 NB     4py       -0.0768    0.0000    0.0000   -0.0011    0.0000   -0.0095    0.0000   -0.0000   -0.0000    0.0001
       23 NB     5py        0.7717   -0.0000   -0.0000    0.0048   -0.0000    0.0189   -0.0000   -0.0000   -0.0000    0.0000
       24 NB     6py        0.4732   -0.0000   -0.0000    0.0041   -0.0000    0.0279   -0.0000   -0.0000    0.0000   -0.0005
       25 NB     7py        0.3809   -0.0000   -0.0000    0.0034   -0.0000    0.0228   -0.0000   -0.0000    0.0000   -0.0008
       26 NB     8py        0.1542   -0.0000   -0.0000    0.0016   -0.0000    0.0106   -0.0000   -0.0000    0.0000   -0.0008
       27 NB     9py        0.0526   -0.0000   -0.0000    0.0005   -0.0000    0.0035   -0.0000   -0.0000    0.0000   -0.0002
       28 NB    10py        0.0076   -0.0000   -0.0000    0.0001   -0.0000    0.0007   -0.0000   -0.0000    0.0000   -0.0001
       29 NB     2pz        0.0000    0.0002   -0.0000   -0.0000   -0.0000   -0.0000   -0.0001    0.0000    0.0000    0.0000
       30 NB     3pz        0.0000    0.0100   -0.0000   -0.0000   -0.0000   -0.0000   -0.0012    0.0018    0.0000    0.0000
       31 NB     4pz       -0.0000   -0.0842    0.0000    0.0000    0.0000    0.0000    0.0059   -0.0092   -0.0000   -0.0000
       32 NB     5pz        0.0000    0.7592   -0.0000   -0.0000   -0.0000   -0.0000   -0.0196    0.0000   -0.0000   -0.0000
       33 NB     6pz        0.0000    0.4835   -0.0000   -0.0000   -0.0000   -0.0000   -0.0200    0.0268    0.0000    0.0000
       34 NB     7pz        0.0000    0.3890   -0.0000   -0.0000   -0.0000   -0.0000   -0.0163    0.0253    0.0000    0.0000
       35 NB     8pz        0.0000    0.1588   -0.0000   -0.0000   -0.0000   -0.0000   -0.0076    0.0134    0.0000    0.0000
       36 NB     9pz        0.0000    0.0540   -0.0000   -0.0000   -0.0000   -0.0000   -0.0024    0.0050    0.0000    0.0000
       37 NB    10pz        0.0000    0.0079   -0.0000   -0.0000   -0.0000   -0.0000   -0.0005    0.0008    0.0000    0.0000
       38 NB     3d2-      -0.0019    0.0000    0.0000   -0.0096    0.0000   -0.0064    0.0000    0.0000   -0.0000    0.0210
       39 NB     4d2-      -0.0244    0.0000   -0.0000    0.3328   -0.0000    0.1584   -0.0000   -0.0000    0.0000   -0.4886
       40 NB     5d2-      -0.0139    0.0000   -0.0000    0.5382   -0.0000    0.2710   -0.0000    0.0000    0.0000   -0.2879
       41 NB     6d2-      -0.0101    0.0000   -0.0000    0.5584   -0.0000    0.2841   -0.0000    0.0000   -0.0000    0.2979
       42 NB     7d2-      -0.0024    0.0000   -0.0000    0.2905   -0.0000    0.1498   -0.0000    0.0000   -0.0000    0.5036
       43 NB     8d2-       0.0005    0.0000   -0.0000    0.0253   -0.0000    0.0135   -0.0000    0.0000   -0.0000    0.2479
       44 NB     9d2-       0.0009    0.0000    0.0000   -0.0039    0.0000   -0.0013    0.0000    0.0000   -0.0000    0.1256
       45 NB    10d2-      -0.0000   -0.0000   -0.0000    0.0064   -0.0000    0.0034   -0.0000   -0.0000    0.0000   -0.0145
       46 NB     3d1-      -0.0026    0.0000   -0.0000    0.0043    0.0000   -0.0119    0.0000   -0.0000    0.0000   -0.0118
       47 NB     4d1-      -0.0377    0.0000    0.0000   -0.1696   -0.0000    0.3178   -0.0000   -0.0000   -0.0000    0.2889
       48 NB     5d1-      -0.0169   -0.0000    0.0000   -0.2710   -0.0000    0.5378   -0.0000    0.0000   -0.0000    0.1694
       49 NB     6d1-      -0.0115   -0.0000    0.0000   -0.2809   -0.0000    0.5631   -0.0000    0.0000    0.0000   -0.1757
       50 NB     7d1-      -0.0023   -0.0000    0.0000   -0.1459   -0.0000    0.2966   -0.0000    0.0000    0.0000   -0.2969
       51 NB     8d1-       0.0006    0.0000    0.0000   -0.0128   -0.0000    0.0269   -0.0000    0.0000    0.0000   -0.1459
       52 NB     9d1-       0.0011    0.0000   -0.0000    0.0020    0.0000   -0.0028    0.0000    0.0000    0.0000   -0.0740
       53 NB    10d1-      -0.0001   -0.0000    0.0000   -0.0032   -0.0000    0.0066   -0.0000   -0.0000   -0.0000    0.0085
       54 NB     3d0        0.0000    0.0025    0.0000    0.0000   -0.0000   -0.0000   -0.0131   -0.0013   -0.0000   -0.0000
       55 NB     4d0       -0.0000    0.0247   -0.0000   -0.0000    0.0000    0.0000    0.3571   -0.0192    0.0000    0.0000
       56 NB     5d0        0.0000    0.0200   -0.0000   -0.0000    0.0000    0.0000    0.6021    0.0054    0.0000    0.0000
       57 NB     6d0        0.0000    0.0157   -0.0000   -0.0000    0.0000    0.0000    0.6303    0.0192   -0.0000   -0.0000
       58 NB     7d0        0.0000    0.0045   -0.0000   -0.0000    0.0000    0.0000    0.3319    0.0176   -0.0000   -0.0000
       59 NB     8d0       -0.0000   -0.0006   -0.0000   -0.0000    0.0000    0.0000    0.0302    0.0053   -0.0000   -0.0000
       60 NB     9d0       -0.0000   -0.0013    0.0000    0.0000   -0.0000   -0.0000   -0.0032    0.0025   -0.0000   -0.0000
       61 NB    10d0       -0.0000   -0.0000   -0.0000   -0.0000    0.0000    0.0000    0.0074   -0.0001    0.0000    0.0000
       62 NB     3d1+      -0.0000    0.0000   -0.0043   -0.0000   -0.0119   -0.0000    0.0000    0.0000    0.0118    0.0000
       63 NB     4d1+      -0.0000    0.0000    0.1696    0.0000    0.3178    0.0000   -0.0000    0.0000   -0.2889   -0.0000
       64 NB     5d1+      -0.0000    0.0000    0.2710    0.0000    0.5378    0.0000   -0.0000   -0.0000   -0.1694   -0.0000
       65 NB     6d1+      -0.0000    0.0000    0.2809    0.0000    0.5631    0.0000   -0.0000   -0.0000    0.1758    0.0000
       66 NB     7d1+      -0.0000    0.0000    0.1459    0.0000    0.2966    0.0000   -0.0000   -0.0000    0.2969    0.0000
       67 NB     8d1+       0.0000   -0.0000    0.0128    0.0000    0.0269    0.0000   -0.0000   -0.0000    0.1459    0.0000
       68 NB     9d1+       0.0000   -0.0000   -0.0020   -0.0000   -0.0028   -0.0000    0.0000   -0.0000    0.0740    0.0000
       69 NB    10d1+      -0.0000    0.0000    0.0032    0.0000    0.0066    0.0000   -0.0000    0.0000   -0.0085   -0.0000
       70 NB     3d2+       0.0000    0.0000   -0.0096   -0.0000    0.0064    0.0000   -0.0000    0.0000    0.0210    0.0000
       71 NB     4d2+       0.0000    0.0000    0.3328    0.0000   -0.1584   -0.0000    0.0000    0.0000   -0.4886   -0.0000
       72 NB     5d2+       0.0000    0.0000    0.5382    0.0000   -0.2710   -0.0000    0.0000   -0.0000   -0.2879   -0.0000
       73 NB     6d2+       0.0000    0.0000    0.5584    0.0000   -0.2841   -0.0000    0.0000   -0.0000    0.2979    0.0000
       74 NB     7d2+       0.0000    0.0000    0.2905    0.0000   -0.1498   -0.0000    0.0000   -0.0000    0.5036    0.0000
       75 NB     8d2+      -0.0000    0.0000    0.0253    0.0000   -0.0135   -0.0000    0.0000   -0.0000    0.2479    0.0000
       76 NB     9d2+      -0.0000   -0.0000   -0.0039   -0.0000    0.0013    0.0000   -0.0000   -0.0000    0.1256    0.0000
       77 NB    10d2+       0.0000   -0.0000    0.0064    0.0000   -0.0034   -0.0000    0.0000   -0.0000   -0.0145   -0.0000
       78 NB     4f3-       0.0000    0.0000    0.0000   -0.0000    0.0000   -0.0000   -0.0000   -0.0000    0.0000    0.0000
       79 NB     5f3-      -0.0000   -0.0000   -0.0000    0.0000   -0.0000    0.0000    0.0000    0.0000   -0.0000   -0.0000
       80 NB     6f3-      -0.0000   -0.0000   -0.0000    0.0000   -0.0000    0.0000    0.0000    0.0000   -0.0000   -0.0000
       81 NB     7f3-      -0.0000   -0.0000   -0.0000    0.0000   -0.0000   -0.0000    0.0000   -0.0000   -0.0000    0.0000
       82 NB     8f3-       0.0000    0.0000   -0.0000    0.0000   -0.0000    0.0000   -0.0000    0.0000    0.0000   -0.0000
       83 NB     4f2-      -0.0005    0.0000   -0.0000    0.0005    0.0000   -0.0001    0.0000   -0.0000    0.0000   -0.0005
       84 NB     5f2-       0.0001   -0.0000    0.0000   -0.0001   -0.0000    0.0005   -0.0000    0.0000    0.0000   -0.0013
       85 NB     6f2-       0.0004   -0.0000    0.0000   -0.0001   -0.0000    0.0007   -0.0000    0.0000    0.0000   -0.0019
       86 NB     7f2-       0.0005   -0.0000   -0.0000    0.0002   -0.0000    0.0009   -0.0000    0.0000    0.0000   -0.0024
       87 NB     8f2-      -0.0009    0.0000    0.0000   -0.0006    0.0000   -0.0013    0.0000   -0.0000   -0.0000    0.0030
       88 NB     4f1-      -0.0002   -0.0000    0.0000   -0.0004   -0.0000    0.0008   -0.0000   -0.0000   -0.0000    0.0008
       89 NB     5f1-       0.0009    0.0000   -0.0000    0.0003    0.0000   -0.0010    0.0000    0.0000    0.0000   -0.0001
       90 NB     6f1-       0.0009    0.0000   -0.0000    0.0003    0.0000   -0.0010    0.0000    0.0000   -0.0000    0.0001
       91 NB     7f1-       0.0008    0.0000   -0.0000    0.0001    0.0000   -0.0006    0.0000    0.0000   -0.0000    0.0005
       92 NB     8f1-      -0.0008    0.0000   -0.0000    0.0000   -0.0000    0.0002   -0.0000   -0.0000    0.0000   -0.0009
       93 NB     4f0       -0.0000   -0.0000   -0.0000   -0.0000    0.0000    0.0000    0.0012   -0.0001    0.0000    0.0000
       94 NB     5f0        0.0000    0.0011    0.0000    0.0000   -0.0000   -0.0000   -0.0016   -0.0002   -0.0000   -0.0000
       95 NB     6f0        0.0000    0.0010    0.0000    0.0000   -0.0000   -0.0000   -0.0018   -0.0014   -0.0000   -0.0000
       96 NB     7f0        0.0000    0.0010    0.0000    0.0000   -0.0000   -0.0000   -0.0014   -0.0027   -0.0000   -0.0000
       97 NB     8f0       -0.0000   -0.0010   -0.0000   -0.0000    0.0000    0.0000    0.0012    0.0035    0.0000    0.0000
       98 NB     4f1+      -0.0000   -0.0000    0.0004    0.0000    0.0008    0.0000   -0.0000    0.0000   -0.0008   -0.0000
       99 NB     5f1+       0.0000   -0.0000   -0.0003   -0.0000   -0.0010   -0.0000    0.0000   -0.0000    0.0001    0.0000
      100 NB     6f1+       0.0000   -0.0000   -0.0003   -0.0000   -0.0010   -0.0000    0.0000   -0.0000   -0.0001   -0.0000
      101 NB     7f1+       0.0000   -0.0000   -0.0001   -0.0000   -0.0006   -0.0000    0.0000    0.0000   -0.0005   -0.0000
      102 NB     8f1+      -0.0000    0.0000   -0.0000   -0.0000    0.0002    0.0000   -0.0000   -0.0000    0.0009    0.0000
      103 NB     4f2+       0.0000    0.0000    0.0005    0.0000    0.0001    0.0000   -0.0000    0.0000   -0.0005   -0.0000
      104 NB     5f2+      -0.0000   -0.0000   -0.0001   -0.0000   -0.0005   -0.0000    0.0000    0.0000   -0.0013   -0.0000
      105 NB     6f2+      -0.0000   -0.0000   -0.0001   -0.0000   -0.0007   -0.0000    0.0000   -0.0000   -0.0019   -0.0000
      106 NB     7f2+      -0.0000   -0.0000    0.0002    0.0000   -0.0009   -0.0000    0.0000   -0.0000   -0.0024   -0.0000
      107 NB     8f2+       0.0000    0.0000   -0.0006   -0.0000    0.0013    0.0000   -0.0000    0.0000    0.0030    0.0000
      108 NB     4f3+      -0.0000    0.0003   -0.0000   -0.0000    0.0000    0.0000   -0.0002   -0.0000    0.0000   -0.0000
      109 NB     5f3+      -0.0000   -0.0001    0.0000    0.0000    0.0000    0.0000    0.0006   -0.0002   -0.0000    0.0000
      110 NB     6f3+      -0.0000   -0.0003    0.0000    0.0000    0.0000    0.0000    0.0006   -0.0010   -0.0000    0.0000
      111 NB     7f3+      -0.0000   -0.0005    0.0000    0.0000    0.0000    0.0000    0.0006   -0.0019    0.0000    0.0000
      112 NB     8f3+       0.0000    0.0008    0.0000    0.0000   -0.0000   -0.0000   -0.0007    0.0025   -0.0000   -0.0000
      113 NB     5g4-       0.0002   -0.0000    0.0000   -0.0000   -0.0000    0.0000   -0.0000    0.0000   -0.0000    0.0000
      114 NB     6g4-       0.0002   -0.0000    0.0000   -0.0000   -0.0000    0.0000   -0.0000    0.0000   -0.0000    0.0000
      115 NB     7g4-       0.0002   -0.0000    0.0000   -0.0000    0.0000   -0.0000    0.0000    0.0000   -0.0000    0.0000
      116 NB     8g4-       0.0001   -0.0000    0.0000   -0.0000   -0.0000    0.0000   -0.0000   -0.0000   -0.0000    0.0000
      117 NB     5g3-       0.0000   -0.0000   -0.0000    0.0000   -0.0000    0.0000   -0.0000   -0.0000    0.0000   -0.0000
      118 NB     6g3-       0.0000    0.0000   -0.0000    0.0000   -0.0000    0.0000    0.0000    0.0000    0.0000    0.0000
      119 NB     7g3-       0.0000    0.0000   -0.0000    0.0000   -0.0000    0.0000   -0.0000   -0.0000    0.0000    0.0000
      120 NB     8g3-       0.0000    0.0000   -0.0000    0.0000   -0.0000    0.0000    0.0000   -0.0000    0.0000   -0.0000
      121 NB     5g2-       0.0000    0.0000    0.0000   -0.0001    0.0000   -0.0001    0.0000   -0.0000   -0.0000    0.0003
      122 NB     6g2-       0.0000   -0.0000    0.0000   -0.0001    0.0000   -0.0001    0.0000    0.0000   -0.0000    0.0002
      123 NB     7g2-       0.0000   -0.0000    0.0000   -0.0001    0.0000   -0.0000    0.0000   -0.0000   -0.0000    0.0002
      124 NB     8g2-       0.0000   -0.0000    0.0000   -0.0000    0.0000   -0.0001    0.0000    0.0000   -0.0000    0.0001
      125 NB     5g1-       0.0002   -0.0000   -0.0000    0.0001    0.0000   -0.0002    0.0000    0.0000    0.0000   -0.0003
      126 NB     6g1-       0.0003   -0.0000   -0.0000    0.0001    0.0000   -0.0002    0.0000    0.0000    0.0000   -0.0003
      127 NB     7g1-       0.0002   -0.0000   -0.0000    0.0001    0.0000   -0.0001    0.0000   -0.0000    0.0000   -0.0001
      128 NB     8g1-       0.0001   -0.0000   -0.0000    0.0001    0.0000   -0.0000    0.0000    0.0000    0.0000   -0.0001
      129 NB     5g0        0.0000    0.0002    0.0000    0.0000   -0.0000   -0.0000   -0.0002    0.0000   -0.0000    0.0000
      130 NB     6g0        0.0000    0.0003    0.0000    0.0000   -0.0000   -0.0000   -0.0003   -0.0000   -0.0000    0.0000
      131 NB     7g0        0.0000    0.0002    0.0000   -0.0000   -0.0000   -0.0000   -0.0002   -0.0000   -0.0000   -0.0000
      132 NB     8g0        0.0000    0.0002    0.0000   -0.0000   -0.0000   -0.0000   -0.0001    0.0000    0.0000   -0.0000
      133 NB     5g1+       0.0000   -0.0000   -0.0001   -0.0000   -0.0002   -0.0000    0.0000   -0.0000    0.0003    0.0000
      134 NB     6g1+       0.0000   -0.0000   -0.0001   -0.0000   -0.0002   -0.0000    0.0000    0.0000    0.0003    0.0000
      135 NB     7g1+       0.0000   -0.0000   -0.0001   -0.0000   -0.0001   -0.0000    0.0000    0.0000    0.0001    0.0000
      136 NB     8g1+       0.0000   -0.0000   -0.0001   -0.0000   -0.0000   -0.0000    0.0000   -0.0000    0.0001    0.0000
      137 NB     5g2+      -0.0000    0.0000   -0.0001   -0.0000    0.0001    0.0000   -0.0000   -0.0000    0.0003    0.0000
      138 NB     6g2+      -0.0000    0.0000   -0.0001   -0.0000    0.0001    0.0000   -0.0000   -0.0000    0.0002    0.0000
      139 NB     7g2+      -0.0000    0.0000   -0.0001   -0.0000    0.0000    0.0000   -0.0000   -0.0000    0.0002    0.0000
      140 NB     8g2+      -0.0000    0.0000   -0.0000   -0.0000    0.0001    0.0000   -0.0000    0.0000    0.0001    0.0000
      141 NB     5g3+       0.0000    0.0001    0.0000    0.0000    0.0000    0.0000   -0.0000   -0.0000   -0.0000   -0.0000
      142 NB     6g3+       0.0000    0.0002    0.0000    0.0000    0.0000    0.0000   -0.0000   -0.0001   -0.0000   -0.0000
      143 NB     7g3+       0.0000    0.0001    0.0000    0.0000    0.0000    0.0000    0.0000   -0.0001   -0.0000   -0.0000
      144 NB     8g3+       0.0000    0.0001    0.0000    0.0000   -0.0000   -0.0000   -0.0000    0.0001   -0.0000   -0.0000
      145 NB     5g4+       0.0000   -0.0000    0.0000    0.0000    0.0000    0.0000   -0.0000    0.0000   -0.0000   -0.0000
      146 NB     6g4+       0.0000   -0.0000    0.0000    0.0000    0.0000    0.0000   -0.0000    0.0000   -0.0000   -0.0000
      147 NB     7g4+       0.0000   -0.0000    0.0000    0.0000   -0.0000   -0.0000    0.0000    0.0000   -0.0000   -0.0000
      148 NB     8g4+       0.0000   -0.0000    0.0000    0.0000    0.0000    0.0000   -0.0000   -0.0000   -0.0000   -0.0000
      149 NB     6h5-      -0.0000   -0.0000   -0.0000    0.0001   -0.0000    0.0000   -0.0000   -0.0000    0.0000   -0.0001
      150 NB     7h5-      -0.0000    0.0000   -0.0000    0.0001   -0.0000    0.0000   -0.0000    0.0000    0.0000   -0.0001
      151 NB     6h4-      -0.0000    0.0000    0.0000   -0.0000   -0.0000    0.0000   -0.0000   -0.0000   -0.0000    0.0000
      152 NB     7h4-       0.0000   -0.0000    0.0000   -0.0000   -0.0000    0.0000   -0.0000   -0.0000   -0.0000    0.0001
      153 NB     6h3-      -0.0000   -0.0000    0.0000   -0.0000   -0.0000    0.0000    0.0000   -0.0000   -0.0000    0.0000
      154 NB     7h3-      -0.0000    0.0000    0.0000   -0.0000   -0.0000    0.0000    0.0000    0.0000   -0.0000    0.0000
      155 NB     6h2-      -0.0000    0.0000   -0.0000    0.0000   -0.0000    0.0000   -0.0000   -0.0000    0.0000   -0.0001
      156 NB     7h2-      -0.0000   -0.0000   -0.0000    0.0001   -0.0000    0.0000   -0.0000   -0.0000    0.0000   -0.0001
      157 NB     6h1-      -0.0000    0.0000    0.0000   -0.0000   -0.0000    0.0001   -0.0000   -0.0000   -0.0000    0.0001
      158 NB     7h1-      -0.0000    0.0000    0.0000   -0.0001   -0.0000    0.0001   -0.0000    0.0000   -0.0000    0.0001
      159 NB     6h0        0.0000    0.0000   -0.0000   -0.0000    0.0000    0.0000    0.0001   -0.0000    0.0000   -0.0000
      160 NB     7h0       -0.0000    0.0000   -0.0000   -0.0000    0.0000    0.0000    0.0001   -0.0000    0.0000   -0.0000
      161 NB     6h1+      -0.0000    0.0000    0.0000    0.0000    0.0001    0.0000   -0.0000    0.0000   -0.0001   -0.0000
      162 NB     7h1+      -0.0000    0.0000    0.0001    0.0000    0.0001    0.0000   -0.0000    0.0000   -0.0001   -0.0000
      163 NB     6h2+       0.0000   -0.0000    0.0000    0.0000   -0.0000   -0.0000    0.0000   -0.0000   -0.0001   -0.0000
      164 NB     7h2+       0.0000    0.0000    0.0001    0.0000   -0.0000   -0.0000    0.0000    0.0000   -0.0001   -0.0000
      165 NB     6h3+      -0.0000   -0.0000    0.0000    0.0000    0.0000    0.0000    0.0000   -0.0000   -0.0000    0.0000
      166 NB     7h3+       0.0000    0.0000   -0.0000    0.0000    0.0000    0.0000    0.0000   -0.0000   -0.0000    0.0000
      167 NB     6h4+      -0.0000    0.0000    0.0000    0.0000    0.0000    0.0000   -0.0000    0.0000   -0.0000   -0.0000
      168 NB     7h4+       0.0000   -0.0000    0.0000    0.0000    0.0000    0.0000   -0.0000    0.0000   -0.0001   -0.0000
      169 NB     6h5+       0.0000    0.0000    0.0001    0.0000   -0.0000   -0.0000    0.0000    0.0000   -0.0001   -0.0000
[...]
         2    6       4.08847293E-01  1.44561111E-03  4.89968796E+07  6.75439229E-13  4.89968796E+07
         2    8       4.25189429E-01  1.15727626E-04  7.38544974E-13  5.41984505E+07  5.41984505E+07
         2   14       2.47112535E-03  6.75858271E+05  6.79141053E-02  8.30355490E-06  6.75858339E+05
         2   16       2.47111739E-03  6.79141726E-02  6.75856106E+05  7.11346447E-13  6.75856174E+05
         2   18       1.70203709E-05  2.72778172E-05  1.66100463E-15  4.65724337E+03  4.65724340E+03
         3    7       1.02450255E-04  1.20532534E+01  3.55595524E-10  1.74970133E-10  1.20532534E+01
         3    9       1.21265445E-01  4.49156405E+00  3.62297074E+06  1.17036792E+00  3.62297640E+06
         3   11       1.52255976E-01  3.62297242E+06  4.49155546E+00  9.25885347E+05  4.54886226E+06
         3   13       1.54922852E-01  9.86986341E+05  9.58065499E-02  3.85525308E+06  4.84223952E+06
         3   15       3.15768152E-02  9.58073488E-02  9.86958544E+05  4.00791054E-01  9.86959041E+05
         3   17       5.46460104E-02  1.71032176E+06  5.04641797E-05  1.55724337E-04  1.71032176E+06
         4    8       1.02450255E-04  1.20532534E+01  3.55595524E-10  1.74970133E-10  1.20532534E+01
         4   10       1.21265445E-01  4.49156405E+00  3.62297074E+06  1.17036792E+00  3.62297640E+06
         4   12       1.52255976E-01  3.62297242E+06  4.49155546E+00  9.25885347E+05  4.54886226E+06
         4   14       1.54922852E-01  9.86986341E+05  9.58065499E-02  3.85525308E+06  4.84223952E+06
         4   16       3.15768152E-02  9.58073488E-02  9.86958544E+05  4.00791054E-01  9.86959041E+05
         4   18       5.46460104E-02  1.71032176E+06  5.04641797E-05  1.55724337E-04  1.71032176E+06
         5    7       1.02449943E-04  3.55600262E-10  1.20531201E+01  3.17022131E-20  1.20531201E+01
         5    9       1.52255544E-01  3.62297369E+06  4.49153725E+00  9.25868885E+05  4.54884707E+06
         5   11       1.21264852E-01  4.49155954E+00  3.62295118E+06  1.17035405E+00  3.62295684E+06
         5   13       3.15764356E-02  9.58056933E-02  9.86946149E+05  4.00790363E-01  9.86946645E+05
         5   15       1.54922288E-01  9.86952040E+05  9.58034101E-02  3.85526760E+06  4.84221973E+06
         5   17       5.46478688E-02  5.04605787E-05  1.71037909E+06  6.29458805E-14  1.71037909E+06
         6    8       1.02449943E-04  3.55600262E-10  1.20531201E+01  3.17022131E-20  1.20531201E+01
         6   10       1.52255544E-01  3.62297369E+06  4.49153725E+00  9.25868885E+05  4.54884707E+06
         6   12       1.21264852E-01  4.49155954E+00  3.62295118E+06  1.17035405E+00  3.62295684E+06
         6   14       3.15764356E-02  9.58056933E-02  9.86946149E+05  4.00790363E-01  9.86946645E+05
         6   16       1.54922288E-01  9.86952040E+05  9.58034101E-02  3.85526760E+06  4.84221973E+06
         6   18       5.46478688E-02  5.04605787E-05  1.71037909E+06  6.29458805E-14  1.71037909E+06
         7    9       2.95726860E-02  9.71602141E-01  7.76117006E+05  1.88666207E-11  7.76117978E+05
         7   11       2.95728478E-02  7.76121253E+05  9.71601600E-01  1.42528879E-05  7.76122224E+05
         7   13       1.17047913E-01  3.22329264E+06  3.23896288E-01  3.17291428E-04  3.22329296E+06
         7   15       1.17048079E-01  3.23897322E-01  3.22329737E+06  3.10231202E-11  3.22329770E+06
         7   17       1.92160366E-01  1.70024107E-04  9.94910578E-16  5.29940311E+06  5.29940311E+06
         8   10       2.95726860E-02  9.71602141E-01  7.76117006E+05  1.88666207E-11  7.76117978E+05
         8   12       2.95728478E-02  7.76121253E+05  9.71601600E-01  1.42528879E-05  7.76122224E+05
         8   14       1.17047913E-01  3.22329264E+06  3.23896288E-01  3.17291428E-04  3.22329296E+06
         8   16       1.17048079E-01  3.23897322E-01  3.22329737E+06  3.10231202E-11  3.22329770E+06
         8   18       1.92160366E-01  1.70024107E-04  9.94910578E-16  5.29940311E+06  5.29940311E+06
     -----------------------------------------------------------------------------------------------
--

++ Velocity transition strengths (SO states):
   ------------------------------------------
    for osc. strength at least    1.0000000000000001E-005

      From   To        Osc. strength     Einstein coefficients Ax, Ay, Az (sec-1)    Total A (sec-1)
     -----------------------------------------------------------------------------------------------
         1    3       3.20226157E-01  3.83765121E+07  1.13226782E-03  8.60222074E-05  3.83765121E+07
         1    5       3.20226201E-01  1.13226267E-03  3.83765270E+07  4.88878063E-13  3.83765270E+07
         1    7       3.30136396E-01  8.90962067E-05  6.17983299E-13  4.20822863E+07  4.20822863E+07
         1    9       2.61995377E-05  8.83499902E-03  7.05794448E+03  4.78727003E-12  7.05795331E+03
         1   11       2.61978955E-05  7.05750207E+03  8.83582562E-03  3.24502029E-06  7.05751091E+03
         1   13       1.95244531E-03  5.33999985E+05  5.36593434E-02  3.32357969E-06  5.34000039E+05
         1   15       1.95243781E-03  5.36595130E-02  5.33997944E+05  2.83943268E-13  5.33997997E+05
         1   17       1.35909766E-05  1.94306328E-05  1.30396121E-15  3.71887935E+03  3.71887937E+03
         2    4       3.20226157E-01  3.83765121E+07  1.13226782E-03  8.60222074E-05  3.83765121E+07
         2    6       3.20226201E-01  1.13226267E-03  3.83765270E+07  4.88878063E-13  3.83765270E+07
         2    8       3.30136396E-01  8.90962067E-05  6.17983299E-13  4.20822863E+07  4.20822863E+07
         2   10       2.61995377E-05  8.83499902E-03  7.05794448E+03  4.78727003E-12  7.05795331E+03
         2   12       2.61978955E-05  7.05750207E+03  8.83582562E-03  3.24502029E-06  7.05751091E+03
         2   14       1.95244531E-03  5.33999985E+05  5.36593434E-02  3.32357969E-06  5.34000039E+05
         2   16       1.95243781E-03  5.36595130E-02  5.33997944E+05  2.83943268E-13  5.33997997E+05
         2   18       1.35909766E-05  1.94306328E-05  1.30396121E-15  3.71887935E+03  3.71887937E+03
         3    7       7.52283870E-04  8.85063647E+01  2.61667413E-09  3.69079434E-10  8.85063647E+01
         3    9       3.45654398E-01  1.28027752E+01  1.03269330E+07  3.32358807E+00  1.03269491E+07
         3   11       4.33660381E-01  1.03269371E+07  1.28027507E+01  2.62931131E+06  1.29562612E+07
         3   13       4.41023363E-01  2.81862724E+06  2.73603524E-01  1.09659637E+07  1.37845912E+07
         3   15       9.01764921E-02  2.73605879E-01  2.81854798E+06  1.14001838E+00  2.81854940E+06
         3   17       1.53113867E-01  4.79220510E+06  1.41396982E-04  4.40334624E-04  4.79220510E+06
         4    8       7.52283870E-04  8.85063647E+01  2.61667413E-09  3.69079434E-10  8.85063647E+01
         4   10       3.45654398E-01  1.28027752E+01  1.03269330E+07  3.32358807E+00  1.03269491E+07
         4   12       4.33660381E-01  1.03269371E+07  1.28027507E+01  2.62931131E+06  1.29562612E+07
         4   14       4.41023363E-01  2.81862724E+06  2.73603524E-01  1.09659637E+07  1.37845912E+07
         4   16       9.01764921E-02  2.73605879E-01  2.81854798E+06  1.14001838E+00  2.81854940E+06
         4   18       1.53113867E-01  4.79220510E+06  1.41396982E-04  4.40334624E-04  4.79220510E+06
         5    7       7.52285079E-04  2.60888885E-09  8.85057980E+01  1.96686780E-17  8.85057980E+01
         5    9       4.33659293E-01  1.03269442E+07  1.28027031E+01  2.62926522E+06  1.29562222E+07
         5   11       3.45652820E-01  1.28027657E+01  1.03268806E+07  3.32355000E+00  1.03268968E+07
         5   13       9.01754494E-02  2.73601181E-01  2.81851388E+06  1.14001698E+00  2.81851529E+06
         5   15       4.41021867E-01  2.81853032E+06  2.73594795E-01  1.09660077E+07  1.37845383E+07
         5   17       1.53119158E-01  1.41387154E-04  4.79236834E+06  1.67213324E-13  4.79236834E+06
         6    8       7.52285079E-04  2.60888885E-09  8.85057980E+01  1.96686780E-17  8.85057980E+01
         6   10       4.33659293E-01  1.03269442E+07  1.28027031E+01  2.62926522E+06  1.29562222E+07
         6   12       3.45652820E-01  1.28027657E+01  1.03268806E+07  3.32355000E+00  1.03268968E+07
         6   14       9.01754494E-02  2.73601181E-01  2.81851388E+06  1.14001698E+00  2.81851529E+06
         6   16       4.41021867E-01  2.81853032E+06  2.73594795E-01  1.09660077E+07  1.37845383E+07
         6   18       1.53119158E-01  1.41387154E-04  4.79236834E+06  1.67213324E-13  4.79236834E+06
         7    9       8.99376654E-02  2.95488647E+00  2.36036707E+06  5.88265552E-11  2.36037003E+06
         7   11       8.99381588E-02  2.36038002E+06  2.95488524E+00  4.50542185E-05  2.36038298E+06
         7   13       3.58585602E-01  9.87484801E+06  9.92285574E-01  9.69161789E-04  9.87484900E+06
         7   15       3.58586101E-01  9.92288510E-01  9.87486223E+06  9.48492392E-11  9.87486322E+06
         7   17       5.87980191E-01  5.21890000E-04  3.60417699E-15  1.62153880E+07  1.62153880E+07
         8   10       8.99376654E-02  2.95488647E+00  2.36036707E+06  5.88265552E-11  2.36037003E+06
         8   12       8.99381588E-02  2.36038002E+06  2.95488524E+00  4.50542185E-05  2.36038298E+06
         8   14       3.58585602E-01  9.87484801E+06  9.92285574E-01  9.69161789E-04  9.87484900E+06
         8   16       3.58586101E-01  9.92288510E-01  9.87486223E+06  9.48492392E-11  9.87486322E+06
         8   18       5.87980191E-01  5.21890000E-04  3.60417699E-15  1.62153880E+07  1.62153880E+07
         9   13       6.49688187E-03  2.08477731E-04  1.01120891E+02  4.12963548E-05  1.01121141E+02
         9   15       1.06230547E-02  1.01120007E+02  2.08478588E-04  6.42233459E+01  1.65343562E+02
         9   17       2.65165420E-03  5.48566771E-05  4.38172391E+01  1.00300000E-15  4.38172940E+01
        10   14       6.49688187E-03  2.08477731E-04  1.01120891E+02  4.12963548E-05  1.01121141E+02
        10   16       1.06230547E-02  1.01120007E+02  2.08478588E-04  6.42233459E+01  1.65343562E+02
        10   18       2.65165420E-03  5.48566771E-05  4.38172391E+01  1.00300000E-15  4.38172940E+01
        11   13       1.06230034E-02  1.01118369E+02  2.08481387E-04  6.42238502E+01  1.65342428E+02
        11   15       6.49676260E-03  2.08479320E-04  1.01119240E+02  4.12955942E-05  1.01119490E+02
        11   17       2.65180550E-03  4.38197394E+01  5.48534494E-05  1.59363042E-09  4.38197942E+01
        12   14       1.06230034E-02  1.01118369E+02  2.08481387E-04  6.42238502E+01  1.65342428E+02
        12   16       6.49676260E-03  2.08479320E-04  1.01119240E+02  4.12955942E-05  1.01119490E+02
        12   18       2.65180550E-03  4.38197394E+01  5.48534494E-05  1.59363042E-09  4.38197942E+01
        13   17       1.45449172E-02  2.08889410E-01  2.09901430E-08  5.40395737E-12  2.08889431E-01
        14   18       1.45449172E-02  2.08889410E-01  2.09901430E-08  5.40395737E-12  2.08889431E-01
        15   17       1.45451880E-02  2.09907383E-08  2.08879343E-01  2.39237262E-24  2.08879364E-01
        16   18       1.45451880E-02  2.09907383E-08  2.08879343E-01  2.39237262E-24  2.08879364E-01
     -----------------------------------------------------------------------------------------------
--

++ Length and velocity gauge comparison (SO states):

 --------------------------------------------------
 A comparison between the dipole oscillator strengths in 
 length and velocity gauge will be performed

 All dipole oscillator differences above the tolerance of   0.10000000000000001       will be printed 

 Due to basis set deficiency these oscillator may be problematic 

 The tolerance is defined as ABS(1-O_l/O_v) 
 O_l : dipole oscillator strength in length gauge
 O_p : dipole oscillator strength in velocity gauge
 --------------------------------------------------

  Problematic transitions have been found

      From   To       Difference (%) Osc. st. (len.) Osc. st. (vel.)
     ---------------------------------------------------------------
         1    3            27.674524  4.08847221E-01  3.20226157E-01
         1    5            27.674529  4.08847293E-01  3.20226201E-01
         1    7            28.792049  4.25189429E-01  3.30136396E-01
         1    9      --------------- below threshold  2.61995377E-05
         1   11      --------------- below threshold  2.61978955E-05
         1   13            26.565663  2.47112535E-03  1.95244531E-03
         1   15            26.565741  2.47111739E-03  1.95243781E-03
         1   17            25.232876  1.70203709E-05  1.35909766E-05
         2    4            27.674524  4.08847221E-01  3.20226157E-01
         2    6            27.674529  4.08847293E-01  3.20226201E-01
         2    8            28.792049  4.25189429E-01  3.30136396E-01
         2   10      --------------- below threshold  2.61995377E-05
         2   12      --------------- below threshold  2.61978955E-05
         2   14            26.565663  2.47112535E-03  1.95244531E-03
         2   16            26.565741  2.47111739E-03  1.95243781E-03
         2   18            25.232876  1.70203709E-05  1.35909766E-05
         3    7            86.381437  1.02450255E-04  7.52283870E-04
         3    9            64.917141  1.21265445E-01  3.45654398E-01
         3   11            64.890504  1.52255976E-01  4.33660381E-01
         3   13            64.871963  1.54922852E-01  4.41023363E-01
         3   15            64.983318  3.15768152E-02  9.01764921E-02
         3   17            64.310215  5.46460104E-02  1.53113867E-01
         4    8            86.381437  1.02450255E-04  7.52283870E-04
         4   10            64.917141  1.21265445E-01  3.45654398E-01
         4   12            64.890504  1.52255976E-01  4.33660381E-01
         4   14            64.871963  1.54922852E-01  4.41023363E-01
         4   16            64.983318  3.15768152E-02  9.01764921E-02
         4   18            64.310215  5.46460104E-02  1.53113867E-01
         5    7            86.381500  1.02449943E-04  7.52285079E-04
         5    9            64.890515  1.52255544E-01  4.33659293E-01
         5   11            64.917153  1.21264852E-01  3.45652820E-01
         5   13            64.983334  3.15764356E-02  9.01754494E-02
         5   15            64.871971  1.54922288E-01  4.41021867E-01
         5   17            64.310234  5.46478688E-02  1.53119158E-01
         6    8            86.381500  1.02449943E-04  7.52285079E-04
         6   10            64.890515  1.52255544E-01  4.33659293E-01
         6   12            64.917153  1.21264852E-01  3.45652820E-01
         6   14            64.983334  3.15764356E-02  9.01754494E-02
         6   16            64.871971  1.54922288E-01  4.41021867E-01
         6   18            64.310234  5.46478688E-02  1.53119158E-01
         7    9            67.118686  2.95726860E-02  8.99376654E-02
         7   11            67.118687  2.95728478E-02  8.99381588E-02
         7   13            67.358446  1.17047913E-01  3.58585602E-01
         7   15            67.358445  1.17048079E-01  3.58586101E-01
         7   17            67.318565  1.92160366E-01  5.87980191E-01
         8   10            67.118686  2.95726860E-02  8.99376654E-02
         8   12            67.118687  2.95728478E-02  8.99381588E-02
         8   14            67.358446  1.17047913E-01  3.58585602E-01
         8   16            67.358445  1.17048079E-01  3.58586101E-01
         8   18            67.318565  1.92160366E-01  5.87980191E-01
         9   13      --------------- below threshold  6.49688187E-03
         9   15      --------------- below threshold  1.06230547E-02
         9   17      --------------- below threshold  2.65165420E-03
        10   14      --------------- below threshold  6.49688187E-03
        10   16      --------------- below threshold  1.06230547E-02
        10   18      --------------- below threshold  2.65165420E-03
        11   13      --------------- below threshold  1.06230034E-02
        11   15      --------------- below threshold  6.49676260E-03
        11   17      --------------- below threshold  2.65180550E-03
        12   14      --------------- below threshold  1.06230034E-02
        12   16      --------------- below threshold  6.49676260E-03
        12   18      --------------- below threshold  2.65180550E-03
        13   17      --------------- below threshold  1.45449172E-02
        14   18      --------------- below threshold  1.45449172E-02
        15   17      --------------- below threshold  1.45451880E-02
        16   18      --------------- below threshold  1.45451880E-02
     ---------------------------------------------------------------

 Number of problematic transitions =                    66

--

 Electric-dipole - electric-octupole not included
++ I/O STATISTICS
 
  I. General I/O information
  - - - - - - - - - - - - - - - - - - - - - - - - - - - - - - - - - - - - - - - - - - -
  Unit  Name          Flsize      Write/Read            MBytes           Write/Read
                      (MBytes)       Calls              In/Out           Time, sec.
  - - - - - - - - - - - - - - - - - - - - - - - - - - - - - - - - - - - - - - - - - - -
   1  SCRATCH           0.00 .       9/      45 .      0.0/      0.0 .       0/       0
   2  ANNI              0.00 .       0/       0 .      0.0/      0.0 .       0/       0
   3  RUNFILE          14.67 .     322/   10031 .      2.3/     72.7 .       0/       0
   4  ONEINT            5.14 .       0/   22237 .      0.0/   3722.5 .       0/       0
   5  JOBIPH            5.92 .       0/      92 .      0.0/      0.7 .       0/       0
   6  ORDINT          403.03 .       1/    3225 .      0.0/    806.0 .       0/       0
  - - - - - - - - - - - - - - - - - - - - - - - - - - - - - - - - - - - - - - - - - - -
   *  TOTAL           428.76 .     332/   35630 .      2.3/   4602.0 .       0/       0
  - - - - - - - - - - - - - - - - - - - - - - - - - - - - - - - - - - - - - - - - - - -
 
  II. I/O Access Patterns
  - - - - - - - - - - - - - - - - - - - -
  Unit  Name               % of random
                         Write/Read calls
  - - - - - - - - - - - - - - - - - - - -
   1  SCRATCH             88.9/ 100.0
   2  ANNI                 0.0/   0.0
   3  RUNFILE             28.6/  10.8
   4  ONEINT               0.0/  17.4
   5  JOBIPH               0.0/  76.1
   6  ORDINT             100.0/   0.1
  - - - - - - - - - - - - - - - - - - - -
--
--- Stop Module: rassi at Thu Jan  9 20:50:03 2025 /rc=_RC_ALL_IS_WELL_ ---
*** files: xmldump
    saved to directory /home4/s4752295/Internship/Initial_simulations/Point_charge_model/1_electron/active_space_9_non_rel/Nb/varying_bond_length
--- Module rassi spent 3 seconds ---

.##################.
.# Happy landing! #.
.##################.

    Timing: Wall=46.74 User=35.94 System=7.06

###############################################################################
Hbrk Cluster
Job 14549875 for user s4752295
Finished at: Thu Jan  9 20:50:03 CET 2025

Job details:
============

Job ID                         : 14549875
Name                           : Nb_no_c_light
User                           : s4752295
Partition                      : regularmedium
Nodes                          : node80
Number of Nodes                : 1
Cores                          : 1
Number of Tasks                : 1
State                          : RUNNING  
Submit                         : 2025-01-09T20:49:11
Start                          : 2025-01-09T20:49:12
End                            : --
Reserved walltime              : 15:00:00
Used walltime                  : 00:00:51
Used CPU time                  : -- 
% User (Computation)           : --
% System (I/O)                 : --
Total memory reserved          : 25000M
Maximum memory used            : --

Acknowledgements:
=================

Please see this page for information about acknowledging Hbrk in your publications:

https://wiki.hpc.rug.nl/habrok/introduction/scientific_output

################################################################################
