   This run of MOLCAS is using the pymolcas driver

                             OPE
                             OPE          NMOL  CASOP  ENMOLC A   SO
                 OPE        NMOLC        AS  OP EN  MO LC     AS  OP
                OPENM       OL CA        SO  PE NM  OL CA     SOP EN
                OP EN      MO   LC       AS  OP ENMOL  CASO   PENMOL
                OP  EN     MO   LC       AS  OP EN     MO     LC ASO
               OP   E  NMOL  C  AS       OP  EN MO     LC     AS  OP
               OP  E   NMO   LC AS        OPEN  MO     LCASOP EN   M
               O  PEN   MO  LCA  SO
            OPE   NMO   L   CAS    OP
        OPENMOL  CASOP     ENMOL   CASOPE
     OPENMOLCA   SOPENMOLCASOPEN   MOLCASOPE
    OPENMOLCAS   OP           EN   MOL    CAS
    OPENMOLCAS       OP  ENM        O     LCA
    OPENMOLCAS    OPEN  MOLCASO     P  E  NMO
    OPENMOLCAS     OP               E  N  MOL
    OPENMOLCA   SO           PENM   O  L  CAS    OPEN    MO    LCAS
    OPENMOLCA   SOP           ENM   O  L  CAS   OP  EN  MOLC  AS   O
    OPENMOLCA   SOPE           NM      O  LCA   S      OP  EN MO
    OPENMOLC                AS         O  PEN   M      OL  CA  SOPE
    OPENMO        LCASOPE  NMOL        C  ASO   P      ENMOLC     AS
    OPE     NMO      LCA  SO     P     E   NM   OL  CA SO  PE N   MO
          OPENMOLCA            SOPE   NMO        LCAS  O    P  ENMO
     OPENMOLCASOPENMOLCASOPENMOLCASOPENMOLCA
        OPENMOLCASOPENMOLCASOPENMOLCASOPE
            OPENMOLCASOPENMOLCASOPENM
               OPENMOLCASOPENMOLCA        version: o91e1abe7de707b ?
                   OPENMOLCASO
                       OPE                tag:

 OpenMolcas is free software; you can redistribute it and/or modify it
 under the terms of the GNU Lesser General Public License version 2.1.
 OpenMolcas is distributed in the hope that it will be useful, but it
 is provided "as is" and without any express or implied warranties.
 For more details see the full text of the license in the file
 LICENSE or in <http://www.gnu.org/licenses/>.

                 Copyright (C) The OpenMolcas Authors
           For the author list and the recommended citation,
                   consult the file CONTRIBUTORS.md

           *************************************************
           * pymolcas version py2.10                       *
           *   build 3068ae8b88c9345ec6cfef6fef7f1169      *
           *   (after the EMIL interpreter by V. Veryazov) *
           *************************************************

configuration info
------------------
Host name: login1 (Linux)
C Compiler ID: GNU
C flags: -std=gnu99
Fortran Compiler ID: GNU
Fortran flags: -fno-aggressive-loop-optimizations -cpp -fdefault-integer-8 -fmax-stack-var-size=1048576
Definitions: _MOLCAS_;_I8_;_LINUX_;_MKL_
Parallel: OFF (GA=OFF)


   ----------------------------------------------------------------------------------------------------------------------------------------------
  |
  |           Project: niobium_so_cf
  |    Submitted from: /home4/s4752295/Internship/Initial_simulations/Point_charge_model/1_electron/active_space_9_non_rel/Nb/varying_bond_length
  |      Scratch area: /tmp/niobium_so_cf
  |   Save outputs to: /home4/s4752295/Internship/Initial_simulations/Point_charge_model/1_electron/active_space_9_non_rel/Nb/varying_bond_length
  |            Molcas: /home4/s4752295/Internship/Molcas/recomp_try/OpenMolcas-master/build
  |
  | Scratch area is empty
  |
  |    MOLCAS_DRIVER = /home4/s4752295/Internship/Molcas/bin/pymolcas
  |    MOLCAS_NPROCS = 1
  |    MOLCAS_SOURCE = /home4/s4752295/Internship/Molcas/recomp_try/OpenMolcas-master
  | MOLCAS_STRUCTURE = 0
  |
   ----------------------------------------------------------------------------------------------------------------------------------------------

++ ---------   Input file   ---------

&SEWARD
AMFi

CLIG
$R

Basis Set
Nb.ANO-rcc.Roos.21s18p13d6f4g2h.10s9p8d5f4g2h.
Spherical d
Nb            0.0       0.0     0.0
End of Basis

Xfield

4
0.000000,  0.00000,  0.9450     -1.0
0.818394,  0.00000, -0.4725     -1.0
-0.409197,  0.70875, -0.4725    -1.0
-0.409197, -0.70875, -0.4725    -1.0

End of input

&SCF
Occupied
18
Iterations
   50  100
End of Input

&RASSCF
LumOrb
Symmetry
1
Spin
2
Nactel
1 0 0
CIRoot
9 9 1
inactive
18
ras2
9
Alter
4
1 19 24
1 20 25
1 21 26
1 22 27
End of Input

>>> COPY niobium_so_cf.JobIph $SLURM_SUBMIT_DIR/niobium_so_cf.doublet.JobIph

>>> COPY $SLURM_SUBMIT_DIR/niobium_so_cf.doublet.JobIph ./JOB002

&RASSI
NROFJobIph
1 All
SpinOrbit
End of Input

EOF

-- ----------------------------------

--- Start Module: seward at Thu Jan  9 20:04:50 2025 ---

()()()()()()()()()()()()()()()()()()()()()()()()()()()()()()()()()()()()()()()()()()()()()()()()()()

                                              &SEWARD

                                   only a single process is used
                       available to each process: 4.1 GB of memory, 1 thread?
                                            pid: 1277957
()()()()()()()()()()()()()()()()()()()()()()()()()()()()()()()()()()()()()()()()()()()()()()()()()()

 The speed of LIGHT in this CALCULATION =   137.03599917700001     
               SEWARD will generate:
                  Multipole Moment integrals up to order  2
                  Kinetic Energy integrals
                  Nuclear Attraction integrals (point charge)
                  One-Electron Hamiltonian integrals
                  Velocity integrals
                  Relativistic Douglas-Kroll-Hess integrals:
                    - Parametrization         : EXP
                    - DKH order of Hamiltonian: 2
                    - DKH order of Properties : 0
                         - multipole moment operators
                         - electric potential operators
                         - contact operators
                  External field from     4 point(s) added to the one-electron Hamiltonian
                  Orbital angular momentum around ( 0.0000  0.0000  0.0000 )
                  Velocity quadrupole around ( 0.0000  0.0000  0.0000 )
                  Atomic mean-field integrals
                  Two-Electron Repulsion integrals

                   Integrals are discarded if absolute value <: 0.10E-13
                   Integral cutoff threshold is set to       <: 0.10E-15

++    Symmetry information:
      ---------------------

                    Character Table for C1 

                             E  
                    a        1  x, y, xy, Rz, z, xz, Ry, yz, Rx, I
--


++    Basis set information:
      ----------------------


      Basis set label: NB.ANO-RCC.ROOS.21S18P13D6F4G2H.10S9P8D5F4G2H......

      Electronic valence basis set:
      ------------------
      Associated Effective Charge  41.000000 au
      Associated Actual Charge     41.000000 au
      Nuclear Model: Point charge

      Shell  nPrim  nBasis  Cartesian Spherical Contaminant
         s      21      10        X                  
         p      18       9        X                  
         d      13       8                 X         
         f       6       5                 X         
         g       4       4                 X         
         h       2       2                 X         
--


++    Molecular structure info:
      -------------------------

                    ************************************************ 
                    **** Cartesian Coordinates / Bohr, Angstrom **** 
                    ************************************************ 

     Center  Label                x              y              z                     x              y              z
        1      NB               0.000000       0.000000       0.000000              0.000000       0.000000       0.000000
--


++    Operator info:
      --------------


  Net charge from external field:   -4.0000000000000000     
--


            Nuclear Potential Energy              0.00000000 au

                    Nuclear-External Field Potential Energy    -173.54497394 au
                    External Field Potential Energy               3.94926012 au 


            Total Nuclear Potential Energy           -173.54497394 au


      Basis set specifications :
      Symmetry species         a  
      Basis functions          170

 Sorry, Molden does not know how to handle
 functions with angular momentum larger than g
Note: The following floating-point exceptions are signalling: IEEE_UNDERFLOW_FLAG IEEE_DENORMAL
--- Stop Module: seward at Thu Jan  9 20:05:03 2025 /rc=_RC_ALL_IS_WELL_ ---
*** files: niobium_so_cf.GssOrb xmldump
    saved to directory /home4/s4752295/Internship/Initial_simulations/Point_charge_model/1_electron/active_space_9_non_rel/Nb/varying_bond_length
--- Module seward spent 12 seconds ---

*** symbolic link created: INPORB -> niobium_so_cf.GssOrb
--- Start Module: scf at Thu Jan  9 20:05:03 2025 ---

()()()()()()()()()()()()()()()()()()()()()()()()()()()()()()()()()()()()()()()()()()()()()()()()()()

                                                &SCF

                                   only a single process is used
                       available to each process: 4.1 GB of memory, 1 thread?
                                            pid: 1277960
()()()()()()()()()()()()()()()()()()()()()()()()()()()()()()()()()()()()()()()()()()()()()()()()()()

++    Input section:
      --------------

      Header of the integral files:
      
       Integrals generated by seward 4.2.0  , Thu Jan  9 20:04:51 2025


      Cartesian coordinates in Angstrom:
      -----------------------------------------------------
      No.  Label        X            Y            Z        
      -----------------------------------------------------
       1   NB         0.00000000   0.00000000   0.00000000
      -----------------------------------------------------
      Nuclear repulsion energy = -173.54497394
--

++    Orbital specifications:
      -----------------------

      Symmetry species               1
                                     a
      Frozen orbitals                0
      Occupied orbitals             18
      Secondary orbitals           152
      Deleted orbitals               0
      Total number of orbitals     170
      Number of basis functions    170
--

      Molecular charge                           5.000

++    Optimization specifications:
      ----------------------------

      SCF Algorithm: Conventional
      Minimized density differences are used
      Number of density matrices in core                5
      Maximum number of NDDO SCF iterations            50
      Maximum number of HF SCF iterations             100
      Threshold for SCF energy change            0.10E-08
      Threshold for density matrix               0.10E-03
      Threshold for Fock matrix                  0.15E-03
      Threshold for linear dependence            0.10E-08
      Threshold at which DIIS is turned on       0.15E+00
      Threshold at which QNR/C2DIIS is turned on 0.75E-01
      Threshold for Norm(delta) (QNR/C2DIIS)     0.20E-04
      DIIS extrapolation of the SCF procedure
      All orbitals punched on: SCFORB
--

      Detected guessorb starting orbitals                                             


++ Convergence information
                                   SCF        iterations: Energy and convergence statistics

Iter     Tot. SCF        One-elec.       Two-elec.     Energy      Max Dij or  Max Fij      DNorm      TNorm      AccCon     Time
         Energy          Energy          Energy        Change      Delta Norm                                                in Sec.

 The total and one-electron energies are shifted by a value of      3000. a.u.

   1  -841.068601207 -2022.928063323  1355.404436053   0.00E+00    0.31E+00*   0.40E+00*    0.85E+01   0.49E+03   None         1.
   2  -842.301146153 -1992.674772988  1323.918600772  -0.12E+01*   0.71E-01*   0.77E-01*    0.20E+01   0.48E+03   EDIIS        1.
   3  -842.342312635 -2002.011031182  1333.213692484  -0.41E-01*   0.18E-01*   0.38E-01*    0.35E+00   0.48E+03   EDIIS        1.
   4  -842.346870430 -1998.490162719  1329.688266226  -0.46E-02*   0.82E-02*   0.14E-01*    0.73E-01   0.48E+03   c2DIIS       1.
   5  -842.347691047 -1999.671855466  1330.869138357  -0.82E-03*   0.35E-02*   0.26E-02*    0.12E-01   0.48E+03   QNRc2DIIS    1.
   6  -842.347745856 -1999.487735730  1330.684963811  -0.55E-04*   0.20E-02*   0.11E-02*    0.27E-02   0.48E+03   QNRc2DIIS    1.
   7  -842.347754719 -1999.550370458  1330.747589676  -0.89E-05*   0.68E-04*   0.46E-04     0.41E-03   0.48E+03   QNRc2DIIS    1.
   8  -842.347754741 -1999.546836405  1330.744055601  -0.21E-07*   0.14E-04    0.56E-05     0.43E-04   0.48E+03   QNRc2DIIS    1.
   9  -842.347754741 -1999.546870829  1330.744090025  -0.53E-09    0.11E-05    0.67E-06     0.11E-03   0.48E+03   QNRc2DIIS    1.

       Convergence after  9 Macro Iterations
--

 *****************************************************************************************************************************
 *                                                                                                                           *
 *                                             SCF/KS-DFT Program, Final results                                             *
 *                                                                                                                           *
 *                                                                                                                           *
 *                                                                                                                           *
 *                                                       Final Results                                                       *
 *                                                                                                                           *
 *****************************************************************************************************************************

::    Total SCF energy                              -3842.3477547411
      One-electron energy                           -4999.5468708293
      Two-electron energy                            1330.7440900254
      Nuclear repulsion energy                       -173.5449739372
      Kinetic energy (interpolated)                  4178.8019126818
      Virial theorem                                    0.9194854973
      Total spin, S(S+1)                                0.0000000000
      Total spin, S                                     0.0000000000
      Max non-diagonal density matrix element           0.0000007033
      Max non-diagonal Fock matrix element              0.0000000732


      All orbitals with orbital energies smaller than  E(LUMO)+0.5 are printed

++    Molecular orbitals:
      -------------------

      Title: SCF orbitals

      Molecular orbitals for symmetry species 1: a  

          Orbital            1         2         3         4         5         6         7         8         9        10    
          Energy         -700.7428 -100.2084  -89.2425  -89.2425  -89.2341  -17.1993  -13.5272  -13.5272  -13.4423   -7.5051
          Occ. No.          2.0000    2.0000    2.0000    2.0000    2.0000    2.0000    2.0000    2.0000    2.0000    2.0000

        1 NB     1s         1.0000    0.0000   -0.0000    0.0000   -0.0000   -0.0000   -0.0000   -0.0000    0.0000   -0.0000
        2 NB     2s        -0.0000    1.0000    0.0000    0.0000   -0.0020    0.0004    0.0000    0.0000   -0.0001   -0.0000
        3 NB     3s         0.0000   -0.0004   -0.0000   -0.0000    0.0001    0.9997    0.0000    0.0000   -0.0216   -0.0000
        4 NB     4s        -0.0000    0.0002   -0.0000    0.0000   -0.0000   -0.0028    0.0000    0.0000    0.0022    0.0000
        5 NB     5s         0.0000   -0.0000    0.0000    0.0000    0.0000    0.0007    0.0000   -0.0000   -0.0004   -0.0000
        6 NB     6s        -0.0000    0.0000   -0.0000    0.0000   -0.0000   -0.0008   -0.0000    0.0000    0.0005    0.0000
        7 NB     7s         0.0000   -0.0001    0.0000   -0.0000    0.0000    0.0019    0.0000   -0.0000   -0.0011   -0.0000
        8 NB     8s        -0.0000    0.0001    0.0000    0.0000   -0.0000   -0.0014   -0.0000   -0.0000    0.0007    0.0000
        9 NB     9s         0.0000   -0.0001   -0.0000   -0.0000    0.0000    0.0012    0.0000    0.0000   -0.0005   -0.0000
       10 NB    10s        -0.0000    0.0001   -0.0000    0.0000   -0.0000   -0.0002   -0.0000    0.0000    0.0000   -0.0000
       11 NB     2px       -0.0000   -0.0000   -0.0030    1.0000   -0.0000    0.0000    0.0004    0.0000   -0.0000   -0.0000
       12 NB     3px        0.0000   -0.0000    0.0000   -0.0004    0.0000   -0.0000    0.9997    0.0054   -0.0000    0.0002
       13 NB     4px       -0.0000    0.0000   -0.0000    0.0001   -0.0000   -0.0000   -0.0018   -0.0000    0.0000   -0.0022
       14 NB     5px        0.0000   -0.0000    0.0000   -0.0000    0.0000    0.0000    0.0007    0.0000   -0.0000    0.0005
       15 NB     6px       -0.0000    0.0000   -0.0000    0.0001   -0.0000   -0.0000   -0.0018   -0.0000    0.0000   -0.0011
       16 NB     7px        0.0000   -0.0000    0.0000   -0.0001    0.0000    0.0000    0.0015    0.0000   -0.0000    0.0007
       17 NB     8px       -0.0000    0.0000   -0.0000    0.0001   -0.0000   -0.0000   -0.0015   -0.0000    0.0000   -0.0004
       18 NB     9px        0.0000   -0.0000    0.0000   -0.0001    0.0000    0.0000    0.0009    0.0000   -0.0000    0.0000
       19 NB    10px       -0.0000    0.0000   -0.0000    0.0001   -0.0000   -0.0000   -0.0001   -0.0000   -0.0000    0.0001
       20 NB     2py        0.0000    0.0000    1.0000    0.0030    0.0000    0.0000   -0.0000    0.0004   -0.0000    0.0000
       21 NB     3py       -0.0000   -0.0000   -0.0004   -0.0000   -0.0000    0.0000   -0.0054    0.9997    0.0000   -0.0000
       22 NB     4py        0.0000    0.0000    0.0001    0.0000    0.0000   -0.0000    0.0000   -0.0018   -0.0000    0.0000
       23 NB     5py        0.0000   -0.0000   -0.0000   -0.0000   -0.0000    0.0000   -0.0000    0.0007    0.0000   -0.0000
       24 NB     6py        0.0000    0.0000    0.0001    0.0000    0.0000   -0.0000    0.0000   -0.0018   -0.0000    0.0000
       25 NB     7py       -0.0000   -0.0000   -0.0001   -0.0000   -0.0000    0.0000   -0.0000    0.0015    0.0000   -0.0000
       26 NB     8py        0.0000    0.0000    0.0001    0.0000    0.0000   -0.0000    0.0000   -0.0015    0.0000    0.0000
       27 NB     9py       -0.0000   -0.0000   -0.0001   -0.0000   -0.0000    0.0000   -0.0000    0.0009    0.0000   -0.0000
       28 NB    10py        0.0000    0.0000    0.0001    0.0000    0.0000   -0.0000    0.0000   -0.0001    0.0000   -0.0000
       29 NB     2pz        0.0000    0.0020   -0.0000    0.0000    1.0000   -0.0001    0.0000    0.0000    0.0004    0.0000
       30 NB     3pz       -0.0000    0.0001    0.0000   -0.0000   -0.0004    0.0216    0.0000    0.0000    0.9997    0.0000
       31 NB     4pz        0.0000   -0.0000   -0.0000    0.0000    0.0001    0.0009   -0.0000   -0.0000   -0.0047   -0.0000
       32 NB     5pz       -0.0000    0.0000    0.0000   -0.0000   -0.0000   -0.0003    0.0000    0.0000    0.0015    0.0000
       33 NB     6pz        0.0000   -0.0000   -0.0000    0.0000    0.0001    0.0007   -0.0000   -0.0000   -0.0037   -0.0000
       34 NB     7pz       -0.0000    0.0000    0.0000   -0.0000   -0.0001   -0.0006    0.0000    0.0000    0.0029    0.0000
       35 NB     8pz        0.0000   -0.0000   -0.0000    0.0000    0.0001    0.0005   -0.0000   -0.0000   -0.0026   -0.0000
       36 NB     9pz       -0.0000    0.0000    0.0000   -0.0000   -0.0001   -0.0003    0.0000    0.0000    0.0014    0.0000
       37 NB    10pz        0.0000   -0.0000   -0.0000    0.0000    0.0001    0.0001   -0.0000    0.0000    0.0000    0.0000
       38 NB     3d2-      -0.0000   -0.0000    0.0001    0.0000    0.0000   -0.0000   -0.0001    0.0105    0.0000    0.0000
       39 NB     4d2-       0.0000    0.0000   -0.0000   -0.0000   -0.0000    0.0000   -0.0000    0.0017    0.0000    0.0000
       40 NB     5d2-      -0.0000   -0.0000    0.0000    0.0000    0.0000   -0.0000    0.0000   -0.0018   -0.0000   -0.0000
       41 NB     6d2-       0.0000    0.0000   -0.0000   -0.0000   -0.0000    0.0000   -0.0000    0.0017    0.0000   -0.0000
       42 NB     7d2-      -0.0000   -0.0000    0.0000    0.0000    0.0000   -0.0000    0.0000   -0.0015   -0.0000    0.0000
       43 NB     8d2-       0.0000    0.0000   -0.0000   -0.0000   -0.0000    0.0000   -0.0000    0.0019    0.0000   -0.0000
       44 NB     9d2-      -0.0000   -0.0000    0.0000    0.0000   -0.0000   -0.0000    0.0000   -0.0012   -0.0000    0.0000
       45 NB    10d2-      -0.0000    0.0000    0.0000    0.0000   -0.0000   -0.0000    0.0000   -0.0003   -0.0000    0.0000
       46 NB     3d1-       0.0000   -0.0000    0.0002    0.0000    0.0000    0.0000   -0.0001    0.0198    0.0000   -0.0000
       47 NB     4d1-       0.0000    0.0000   -0.0000   -0.0000   -0.0000    0.0000   -0.0000    0.0022    0.0000   -0.0000
       48 NB     5d1-      -0.0000   -0.0000    0.0000    0.0000    0.0000   -0.0000    0.0000   -0.0023   -0.0000    0.0000
       49 NB     6d1-       0.0000    0.0000   -0.0000   -0.0000   -0.0000    0.0000   -0.0000    0.0022    0.0000   -0.0000
       50 NB     7d1-      -0.0000   -0.0000    0.0000    0.0000    0.0000   -0.0000    0.0000   -0.0021   -0.0000    0.0000
       51 NB     8d1-       0.0000   -0.0000   -0.0000   -0.0000   -0.0000    0.0000   -0.0000    0.0026    0.0000    0.0000
       52 NB     9d1-       0.0000    0.0000    0.0000    0.0000    0.0000   -0.0000    0.0000   -0.0018   -0.0000   -0.0000
       53 NB    10d1-       0.0000    0.0000    0.0001    0.0000    0.0000   -0.0000    0.0000   -0.0007   -0.0000   -0.0000
       54 NB     3d0       -0.0000   -0.0001   -0.0000    0.0000    0.0001   -0.0058    0.0000    0.0000   -0.0058    0.0000
       55 NB     4d0       -0.0000    0.0000    0.0000   -0.0000   -0.0000   -0.0007   -0.0000   -0.0000   -0.0022   -0.0000
       56 NB     5d0        0.0000   -0.0000   -0.0000    0.0000    0.0000    0.0008    0.0000    0.0000    0.0023    0.0000
       57 NB     6d0        0.0000    0.0000    0.0000   -0.0000   -0.0000   -0.0008   -0.0000   -0.0000   -0.0021   -0.0000
       58 NB     7d0       -0.0000   -0.0000   -0.0000    0.0000    0.0000    0.0007    0.0000    0.0000    0.0019    0.0000
       59 NB     8d0        0.0000    0.0000    0.0000   -0.0000   -0.0000   -0.0010   -0.0000   -0.0000   -0.0022   -0.0000
       60 NB     9d0       -0.0000   -0.0000   -0.0000    0.0000    0.0000    0.0008    0.0000    0.0000    0.0013    0.0000
       61 NB    10d0       -0.0000   -0.0000   -0.0000    0.0000    0.0001    0.0004   -0.0000   -0.0000   -0.0001   -0.0000
       62 NB     3d1+       0.0000    0.0000   -0.0000    0.0002   -0.0000    0.0000    0.0198    0.0001   -0.0000    0.4593
       63 NB     4d1+      -0.0000   -0.0000    0.0000   -0.0000    0.0000    0.0000    0.0022    0.0000   -0.0000    0.0016
       64 NB     5d1+       0.0000    0.0000   -0.0000    0.0000   -0.0000   -0.0000   -0.0023   -0.0000    0.0000   -0.0011
       65 NB     6d1+      -0.0000   -0.0000    0.0000   -0.0000    0.0000    0.0000    0.0022    0.0000   -0.0000    0.0006
       66 NB     7d1+       0.0000    0.0000   -0.0000    0.0000   -0.0000   -0.0000   -0.0021   -0.0000    0.0000   -0.0003
       67 NB     8d1+      -0.0000   -0.0000    0.0000   -0.0000    0.0000    0.0000    0.0026    0.0000   -0.0000   -0.0002
       68 NB     9d1+       0.0000    0.0000   -0.0000    0.0000   -0.0000   -0.0000   -0.0018   -0.0000    0.0000    0.0004
       69 NB    10d1+       0.0000    0.0000   -0.0000    0.0001   -0.0000   -0.0000   -0.0007   -0.0000    0.0000    0.0006
       70 NB     3d2+      -0.0000   -0.0000    0.0000   -0.0001    0.0000    0.0000   -0.0105   -0.0001    0.0000    0.8882
       71 NB     4d2+       0.0000    0.0000   -0.0000    0.0000   -0.0000    0.0000   -0.0017   -0.0000    0.0000    0.0012
       72 NB     5d2+      -0.0000   -0.0000    0.0000   -0.0000    0.0000   -0.0000    0.0018    0.0000   -0.0000   -0.0003
       73 NB     6d2+       0.0000    0.0000   -0.0000    0.0000   -0.0000    0.0000   -0.0017   -0.0000    0.0000   -0.0004
       74 NB     7d2+      -0.0000   -0.0000    0.0000   -0.0000    0.0000   -0.0000    0.0015    0.0000   -0.0000    0.0009
       75 NB     8d2+       0.0000    0.0000   -0.0000    0.0000   -0.0000    0.0000   -0.0019   -0.0000    0.0000   -0.0018
       76 NB     9d2+      -0.0000   -0.0000    0.0000   -0.0000    0.0000    0.0000    0.0012    0.0000   -0.0000    0.0015
       77 NB    10d2+      -0.0000   -0.0000    0.0000   -0.0000    0.0000    0.0000    0.0003    0.0000   -0.0000    0.0010
       78 NB     4f3-      -0.0000    0.0000    0.0000    0.0000    0.0000    0.0000   -0.0000    0.0000   -0.0000   -0.0000
       79 NB     5f3-       0.0000    0.0000    0.0000    0.0000    0.0000    0.0000   -0.0000    0.0000   -0.0000   -0.0000
       80 NB     6f3-      -0.0000   -0.0000   -0.0000   -0.0000   -0.0000   -0.0000    0.0000   -0.0000    0.0000    0.0000
       81 NB     7f3-       0.0000    0.0000    0.0000    0.0000   -0.0000    0.0000   -0.0000    0.0000    0.0000   -0.0000
       82 NB     8f3-      -0.0000   -0.0000    0.0000    0.0000   -0.0000    0.0000   -0.0000    0.0000    0.0000    0.0000
       83 NB     4f2-      -0.0000   -0.0000   -0.0000   -0.0000   -0.0000   -0.0000    0.0000   -0.0017   -0.0000    0.0000
       84 NB     5f2-      -0.0000   -0.0000   -0.0000   -0.0000   -0.0000   -0.0000    0.0000   -0.0019   -0.0000    0.0000
       85 NB     6f2-       0.0000   -0.0000    0.0000    0.0000    0.0000    0.0000   -0.0000    0.0018    0.0000   -0.0000
       86 NB     7f2-      -0.0000    0.0000   -0.0000   -0.0000   -0.0000   -0.0000    0.0000   -0.0017   -0.0000    0.0000
       87 NB     8f2-      -0.0000   -0.0000   -0.0000   -0.0000   -0.0000   -0.0000    0.0000   -0.0009   -0.0000    0.0000
       88 NB     4f1-      -0.0000   -0.0000   -0.0000   -0.0000   -0.0000   -0.0000    0.0000   -0.0009   -0.0000   -0.0000
       89 NB     5f1-      -0.0000   -0.0000   -0.0000   -0.0000   -0.0000   -0.0000    0.0000   -0.0010   -0.0000   -0.0000
       90 NB     6f1-       0.0000    0.0000    0.0000    0.0000    0.0000    0.0000   -0.0000    0.0009    0.0000    0.0000
       91 NB     7f1-       0.0000   -0.0000   -0.0000   -0.0000   -0.0000   -0.0000    0.0000   -0.0009   -0.0000   -0.0000
       92 NB     8f1-       0.0000   -0.0000   -0.0000   -0.0000   -0.0000   -0.0000    0.0000   -0.0006   -0.0000   -0.0000
       93 NB     4f0       -0.0000   -0.0000    0.0000   -0.0000   -0.0000   -0.0028   -0.0000   -0.0000   -0.0013    0.0000
       94 NB     5f0       -0.0000   -0.0000    0.0000   -0.0000   -0.0000   -0.0031   -0.0000   -0.0000   -0.0014    0.0000
       95 NB     6f0        0.0000    0.0000   -0.0000    0.0000    0.0000    0.0030    0.0000    0.0000    0.0013   -0.0000
       96 NB     7f0       -0.0000   -0.0000    0.0000   -0.0000   -0.0000   -0.0029   -0.0000   -0.0000   -0.0012    0.0000
       97 NB     8f0        0.0000   -0.0000    0.0000   -0.0000   -0.0000   -0.0018   -0.0000   -0.0000   -0.0008    0.0000
       98 NB     4f1+      -0.0000   -0.0000    0.0000   -0.0000    0.0000   -0.0000   -0.0009   -0.0000    0.0000    0.0011
       99 NB     5f1+      -0.0000   -0.0000    0.0000   -0.0000    0.0000   -0.0000   -0.0010   -0.0000    0.0000    0.0011
      100 NB     6f1+       0.0000    0.0000   -0.0000    0.0000   -0.0000    0.0000    0.0009    0.0000   -0.0000   -0.0008
      101 NB     7f1+       0.0000   -0.0000    0.0000   -0.0000    0.0000   -0.0000   -0.0009   -0.0000    0.0000    0.0007
      102 NB     8f1+      -0.0000   -0.0000    0.0000   -0.0000    0.0000   -0.0000   -0.0006   -0.0000    0.0000    0.0007
      103 NB     4f2+      -0.0000    0.0000   -0.0000    0.0000   -0.0000   -0.0000    0.0017    0.0000   -0.0000    0.0038
      104 NB     5f2+      -0.0000    0.0000   -0.0000    0.0000   -0.0000   -0.0000    0.0019    0.0000   -0.0000    0.0037
      105 NB     6f2+       0.0000   -0.0000    0.0000   -0.0000    0.0000    0.0000   -0.0018   -0.0000    0.0000   -0.0030
      106 NB     7f2+      -0.0000    0.0000   -0.0000    0.0000   -0.0000    0.0000    0.0017    0.0000   -0.0000    0.0026
      107 NB     8f2+       0.0000    0.0000   -0.0000    0.0000   -0.0000    0.0000    0.0009    0.0000   -0.0000    0.0020
      108 NB     4f3+      -0.0000   -0.0000   -0.0000    0.0000    0.0000   -0.0018    0.0000    0.0000    0.0015   -0.0000
      109 NB     5f3+      -0.0000   -0.0000   -0.0000    0.0000    0.0000   -0.0020    0.0000    0.0000    0.0017   -0.0000
      110 NB     6f3+       0.0000    0.0000    0.0000   -0.0000   -0.0000    0.0020   -0.0000   -0.0000   -0.0016    0.0000
      111 NB     7f3+      -0.0000   -0.0000   -0.0000    0.0000    0.0000   -0.0019    0.0000    0.0000    0.0015   -0.0000
      112 NB     8f3+       0.0000   -0.0000   -0.0000    0.0000    0.0000   -0.0012    0.0000    0.0000    0.0008   -0.0000
      113 NB     5g4-      -0.0000   -0.0000   -0.0000   -0.0000   -0.0000   -0.0000    0.0000   -0.0014   -0.0000   -0.0000
      114 NB     6g4-       0.0000    0.0000    0.0000    0.0000    0.0000    0.0000   -0.0000    0.0015    0.0000    0.0000
      115 NB     7g4-      -0.0000   -0.0000   -0.0000   -0.0000   -0.0000   -0.0000    0.0000   -0.0018   -0.0000   -0.0000
      116 NB     8g4-       0.0000   -0.0000    0.0000    0.0000    0.0000    0.0000   -0.0000    0.0020    0.0000    0.0000
      117 NB     5g3-      -0.0000   -0.0000   -0.0000   -0.0000   -0.0000   -0.0000    0.0000   -0.0000    0.0000    0.0000
      118 NB     6g3-      -0.0000    0.0000    0.0000    0.0000   -0.0000   -0.0000   -0.0000    0.0000    0.0000   -0.0000
      119 NB     7g3-       0.0000   -0.0000   -0.0000   -0.0000    0.0000    0.0000    0.0000   -0.0000    0.0000    0.0000
      120 NB     8g3-      -0.0000   -0.0000    0.0000    0.0000   -0.0000   -0.0000   -0.0000    0.0000   -0.0000   -0.0000
      121 NB     5g2-       0.0000    0.0000    0.0000    0.0000    0.0000    0.0000   -0.0000    0.0002    0.0000   -0.0000
      122 NB     6g2-      -0.0000   -0.0000   -0.0000   -0.0000   -0.0000    0.0000    0.0000   -0.0003   -0.0000    0.0000
      123 NB     7g2-       0.0000    0.0000    0.0000    0.0000    0.0000   -0.0000   -0.0000    0.0003    0.0000   -0.0000
      124 NB     8g2-      -0.0000   -0.0000   -0.0000   -0.0000   -0.0000    0.0000    0.0000   -0.0003   -0.0000    0.0000
      125 NB     5g1-      -0.0000   -0.0000   -0.0000   -0.0000   -0.0000   -0.0000    0.0000   -0.0016   -0.0000    0.0000
      126 NB     6g1-       0.0000    0.0000    0.0000    0.0000    0.0000    0.0000   -0.0000    0.0018    0.0000   -0.0000
      127 NB     7g1-      -0.0000   -0.0000   -0.0000   -0.0000   -0.0000   -0.0000    0.0000   -0.0021   -0.0000    0.0000
      128 NB     8g1-       0.0000    0.0000    0.0000    0.0000    0.0000    0.0000   -0.0000    0.0023    0.0000   -0.0000
      129 NB     5g0       -0.0000   -0.0000    0.0000   -0.0000   -0.0000   -0.0001   -0.0000   -0.0000   -0.0029   -0.0000
      130 NB     6g0        0.0000    0.0000   -0.0000    0.0000    0.0000    0.0001    0.0000    0.0000    0.0031    0.0000
      131 NB     7g0       -0.0000   -0.0000    0.0000   -0.0000   -0.0000   -0.0002   -0.0000   -0.0000   -0.0036   -0.0000
      132 NB     8g0        0.0000    0.0000   -0.0000    0.0000    0.0000    0.0002    0.0000    0.0000    0.0040    0.0000
      133 NB     5g1+       0.0000   -0.0000    0.0000   -0.0000    0.0000   -0.0000   -0.0016   -0.0000    0.0000   -0.0013
      134 NB     6g1+      -0.0000    0.0000   -0.0000    0.0000   -0.0000    0.0000    0.0018    0.0000   -0.0000    0.0013
      135 NB     7g1+       0.0000   -0.0000    0.0000   -0.0000    0.0000   -0.0000   -0.0021   -0.0000    0.0000   -0.0014
      136 NB     8g1+      -0.0000    0.0000   -0.0000    0.0000   -0.0000    0.0000    0.0023    0.0000   -0.0000    0.0014
      137 NB     5g2+       0.0000   -0.0000    0.0000   -0.0000    0.0000   -0.0000   -0.0002   -0.0000    0.0000   -0.0004
      138 NB     6g2+      -0.0000    0.0000   -0.0000    0.0000   -0.0000    0.0000    0.0003    0.0000   -0.0000    0.0004
      139 NB     7g2+       0.0000   -0.0000    0.0000   -0.0000    0.0000   -0.0000   -0.0003   -0.0000    0.0000   -0.0004
      140 NB     8g2+      -0.0000    0.0000   -0.0000    0.0000   -0.0000    0.0000    0.0003    0.0000   -0.0000    0.0005
      141 NB     5g3+       0.0000    0.0000    0.0000   -0.0000   -0.0000    0.0013   -0.0000   -0.0000   -0.0017    0.0000
      142 NB     6g3+      -0.0000   -0.0000   -0.0000    0.0000    0.0000   -0.0015    0.0000    0.0000    0.0018   -0.0000
      143 NB     7g3+      -0.0000    0.0000    0.0000   -0.0000   -0.0000    0.0018   -0.0000   -0.0000   -0.0022    0.0000
      144 NB     8g3+       0.0000   -0.0000   -0.0000    0.0000    0.0000   -0.0021    0.0000    0.0000    0.0024   -0.0000
      145 NB     5g4+       0.0000   -0.0000    0.0000   -0.0000    0.0000   -0.0000   -0.0014   -0.0000    0.0000    0.0002
      146 NB     6g4+      -0.0000    0.0000   -0.0000    0.0000   -0.0000    0.0000    0.0015    0.0000   -0.0000   -0.0002
      147 NB     7g4+       0.0000   -0.0000    0.0000   -0.0000    0.0000   -0.0000   -0.0018   -0.0000    0.0000    0.0002
      148 NB     8g4+      -0.0000    0.0000   -0.0000    0.0000   -0.0000    0.0000    0.0020    0.0000   -0.0000   -0.0002
      149 NB     6h5-       0.0000    0.0000    0.0000    0.0000   -0.0000    0.0000   -0.0000    0.0003    0.0000   -0.0000
      150 NB     7h5-      -0.0000   -0.0000   -0.0000   -0.0000    0.0000   -0.0000    0.0000   -0.0003   -0.0000    0.0000
      151 NB     6h4-       0.0000    0.0000    0.0000    0.0000    0.0000    0.0000   -0.0000    0.0009    0.0000    0.0000
      152 NB     7h4-      -0.0000   -0.0000   -0.0000   -0.0000   -0.0000   -0.0000    0.0000   -0.0010   -0.0000   -0.0000
      153 NB     6h3-      -0.0000   -0.0000    0.0000    0.0000   -0.0000   -0.0000   -0.0000    0.0000    0.0000    0.0000
      154 NB     7h3-       0.0000    0.0000   -0.0000   -0.0000    0.0000    0.0000    0.0000   -0.0000    0.0000    0.0000
      155 NB     6h2-       0.0000    0.0000    0.0000    0.0000    0.0000    0.0000   -0.0000    0.0003    0.0000   -0.0000
      156 NB     7h2-      -0.0000   -0.0000   -0.0000   -0.0000   -0.0000   -0.0000    0.0000   -0.0003   -0.0000    0.0000
      157 NB     6h1-       0.0000   -0.0000    0.0000    0.0000   -0.0000    0.0000   -0.0000    0.0003    0.0000    0.0000
      158 NB     7h1-      -0.0000    0.0000   -0.0000   -0.0000   -0.0000   -0.0000    0.0000   -0.0003    0.0000   -0.0000
      159 NB     6h0        0.0000   -0.0000    0.0000   -0.0000   -0.0000   -0.0003   -0.0000   -0.0000   -0.0007   -0.0000
      160 NB     7h0       -0.0000    0.0000   -0.0000    0.0000    0.0000    0.0003    0.0000    0.0000    0.0007    0.0000
      161 NB     6h1+      -0.0000    0.0000   -0.0000    0.0000   -0.0000    0.0000    0.0003    0.0000   -0.0000   -0.0006
      162 NB     7h1+       0.0000   -0.0000    0.0000   -0.0000    0.0000   -0.0000   -0.0003   -0.0000    0.0000    0.0006
      163 NB     6h2+       0.0000    0.0000    0.0000   -0.0000    0.0000    0.0000   -0.0003   -0.0000    0.0000   -0.0010
      164 NB     7h2+      -0.0000   -0.0000   -0.0000    0.0000   -0.0000   -0.0000    0.0003    0.0000   -0.0000    0.0009
      165 NB     6h3+      -0.0000   -0.0000    0.0000    0.0000    0.0000   -0.0004    0.0000    0.0000    0.0009   -0.0000
      166 NB     7h3+      -0.0000    0.0000    0.0000   -0.0000   -0.0000    0.0004   -0.0000   -0.0000   -0.0009    0.0000
      167 NB     6h4+      -0.0000    0.0000   -0.0000    0.0000   -0.0000    0.0000    0.0009    0.0000   -0.0000   -0.0003
      168 NB     7h4+       0.0000   -0.0000    0.0000   -0.0000    0.0000   -0.0000   -0.0010   -0.0000    0.0000    0.0003
      169 NB     6h5+       0.0000    0.0000    0.0000   -0.0000    0.0000    0.0000   -0.0003   -0.0000    0.0000   -0.0013
      170 NB     7h5+      -0.0000   -0.0000   -0.0000    0.0000   -0.0000   -0.0000    0.0003    0.0000   -0.0000    0.0012

          Orbital           11        12        13        14        15        16        17        18        19        20    
          Energy           -7.5051   -7.4194   -7.4194   -7.4167   -2.0485   -1.1702   -1.1702   -1.0084   -0.1503   -0.0893
          Occ. No.          2.0000    2.0000    2.0000    2.0000    2.0000    2.0000    2.0000    2.0000    0.0000    0.0000

        1 NB     1s         0.0000   -0.0000    0.0000    0.0000   -0.0000    0.0000   -0.0000   -0.0000   -0.0000   -0.0000
        2 NB     2s         0.0000    0.0000    0.0000    0.0001    0.0001   -0.0000   -0.0000    0.0000    0.0000    0.0000
        3 NB     3s         0.0000    0.0000    0.0000    0.0057   -0.0019    0.0000    0.0000   -0.0010   -0.0003   -0.0000
        4 NB     4s        -0.0000   -0.0000   -0.0000   -0.0070   -0.9781    0.0000   -0.0000   -0.1056   -0.0529   -0.0000
        5 NB     5s         0.0000    0.0000    0.0000    0.0011   -0.0872    0.0000    0.0000   -0.0405    0.9310   -0.0000
        6 NB     6s        -0.0000   -0.0000   -0.0000   -0.0012    0.0753   -0.0000   -0.0000    0.0271    0.3411    0.0000
        7 NB     7s         0.0000    0.0000    0.0000    0.0023   -0.0857    0.0000    0.0000   -0.0211   -0.0275    0.0000
        8 NB     8s        -0.0000    0.0000   -0.0000   -0.0012    0.0003   -0.0000    0.0000   -0.0050   -0.0227    0.0000
        9 NB     9s        -0.0000    0.0000    0.0000    0.0005    0.0121    0.0000    0.0000    0.0030   -0.0041    0.0000
       10 NB    10s        -0.0000    0.0000    0.0000    0.0002   -0.0009    0.0000   -0.0000   -0.0002   -0.0008   -0.0000
       11 NB     2px        0.0000    0.0000   -0.0002    0.0000    0.0000   -0.0001   -0.0000    0.0000   -0.0000    0.0000
       12 NB     3px       -0.0000    0.0000   -0.0222    0.0000   -0.0000    0.0008    0.0000   -0.0000   -0.0000   -0.0001
       13 NB     4px        0.0000   -0.0000    0.0127   -0.0000    0.0000    0.9697    0.0000   -0.0000   -0.0000   -0.0501
       14 NB     5px       -0.0000    0.0000   -0.0032    0.0000   -0.0000    0.1338    0.0000   -0.0000   -0.0000    0.8054
       15 NB     6px        0.0000   -0.0000    0.0065   -0.0000    0.0000   -0.1248   -0.0000    0.0000    0.0000    0.4383
       16 NB     7px       -0.0000    0.0000   -0.0040    0.0000   -0.0000    0.0024    0.0000   -0.0000   -0.0000    0.3612
       17 NB     8px        0.0000   -0.0000    0.0024   -0.0000    0.0000    0.0139    0.0000   -0.0000    0.0000    0.1398
       18 NB     9px       -0.0000    0.0000   -0.0004    0.0000   -0.0000    0.0024    0.0000   -0.0000   -0.0000    0.0502
       19 NB    10px       -0.0000    0.0000   -0.0006    0.0000   -0.0000    0.0015    0.0000   -0.0000   -0.0000    0.0065
       20 NB     2py        0.0000   -0.0002   -0.0000    0.0000   -0.0000    0.0000   -0.0001    0.0000   -0.0000   -0.0000
       21 NB     3py       -0.0002   -0.0222   -0.0000    0.0000   -0.0000   -0.0000    0.0008   -0.0000    0.0000    0.0000
       22 NB     4py        0.0022    0.0127    0.0000   -0.0000    0.0000   -0.0000    0.9697    0.0000   -0.0000    0.0000
       23 NB     5py       -0.0005   -0.0032   -0.0000    0.0000    0.0000   -0.0000    0.1338    0.0000   -0.0000   -0.0008
       24 NB     6py        0.0011    0.0065    0.0000   -0.0000   -0.0000    0.0000   -0.1248   -0.0000   -0.0000   -0.0004
       25 NB     7py       -0.0007   -0.0040   -0.0000    0.0000    0.0000   -0.0000    0.0024   -0.0000   -0.0000   -0.0003
       26 NB     8py        0.0004    0.0024    0.0000   -0.0000   -0.0000   -0.0000    0.0139   -0.0000   -0.0000   -0.0001
       27 NB     9py       -0.0000   -0.0004   -0.0000    0.0000    0.0000   -0.0000    0.0024    0.0000   -0.0000   -0.0000
       28 NB    10py       -0.0001   -0.0006   -0.0000    0.0000    0.0000   -0.0000    0.0015   -0.0000    0.0000   -0.0000
       29 NB     2pz        0.0000    0.0000   -0.0000   -0.0001   -0.0000   -0.0000    0.0000   -0.0001   -0.0000    0.0000
       30 NB     3pz       -0.0000    0.0000    0.0000    0.0058    0.0016   -0.0000   -0.0000    0.0032    0.0003    0.0000
       31 NB     4pz        0.0000   -0.0000   -0.0000   -0.0097   -0.1128    0.0000   -0.0000    0.9541    0.0079   -0.0000
       32 NB     5pz       -0.0000    0.0000    0.0000    0.0024    0.0025    0.0000   -0.0000    0.1938    0.1049    0.0000
       33 NB     6pz       -0.0000   -0.0000   -0.0000   -0.0049   -0.0018   -0.0000    0.0000   -0.1610    0.0271    0.0000
       34 NB     7pz        0.0000    0.0000    0.0000    0.0030   -0.0002   -0.0000   -0.0000   -0.0059    0.0201    0.0000
       35 NB     8pz        0.0000    0.0000   -0.0000   -0.0016    0.0006    0.0000   -0.0000    0.0189    0.0064    0.0000
       36 NB     9pz        0.0000    0.0000    0.0000    0.0001   -0.0006    0.0000   -0.0000    0.0027    0.0016    0.0000
       37 NB    10pz        0.0000    0.0000    0.0000    0.0006    0.0001   -0.0000   -0.0000    0.0019    0.0002    0.0000
       38 NB     3d2-       0.8882    0.4590    0.0000   -0.0000    0.0000    0.0000   -0.0058   -0.0000   -0.0000   -0.0000
       39 NB     4d2-       0.0012   -0.0029   -0.0000    0.0000    0.0000   -0.0000    0.0792   -0.0000   -0.0000    0.0000
       40 NB     5d2-      -0.0003    0.0033    0.0000   -0.0000   -0.0000    0.0000   -0.0346   -0.0000   -0.0000    0.0000
       41 NB     6d2-      -0.0004   -0.0032   -0.0000    0.0000    0.0000   -0.0000    0.0117    0.0000    0.0000    0.0000
       42 NB     7d2-       0.0009    0.0030    0.0000   -0.0000   -0.0000    0.0000   -0.0037    0.0000    0.0000    0.0000
       43 NB     8d2-      -0.0018   -0.0035   -0.0000    0.0000    0.0000   -0.0000    0.0007    0.0000    0.0000   -0.0000
       44 NB     9d2-       0.0015    0.0023    0.0000   -0.0000    0.0000    0.0000   -0.0001   -0.0000    0.0000   -0.0000
       45 NB    10d2-       0.0010    0.0005    0.0000   -0.0000   -0.0000   -0.0000    0.0009   -0.0000   -0.0000    0.0000
       46 NB     3d1-      -0.4593    0.8878    0.0000   -0.0000    0.0000    0.0000   -0.0078   -0.0000   -0.0000   -0.0000
       47 NB     4d1-      -0.0016   -0.0036   -0.0000    0.0000    0.0000   -0.0000    0.1177   -0.0000   -0.0000    0.0000
       48 NB     5d1-       0.0011    0.0043    0.0000   -0.0000   -0.0000    0.0000   -0.0501   -0.0000   -0.0000   -0.0000
       49 NB     6d1-      -0.0006   -0.0044   -0.0000    0.0000    0.0000   -0.0000    0.0161    0.0000   -0.0000   -0.0000
       50 NB     7d1-       0.0003    0.0043    0.0000   -0.0000    0.0000    0.0000   -0.0046   -0.0000   -0.0000   -0.0000
       51 NB     8d1-       0.0002   -0.0054   -0.0000    0.0000   -0.0000   -0.0000    0.0008   -0.0000    0.0000    0.0000
       52 NB     9d1-      -0.0004    0.0036    0.0000   -0.0000   -0.0000    0.0000   -0.0004   -0.0000    0.0000    0.0000
       53 NB    10d1-      -0.0006    0.0013    0.0000   -0.0000   -0.0000   -0.0000    0.0012   -0.0000   -0.0000   -0.0000
       54 NB     3d0        0.0000    0.0000    0.0000    0.9997   -0.0070    0.0000    0.0000    0.0065   -0.0009   -0.0000
       55 NB     4d0        0.0000   -0.0000   -0.0000   -0.0036    0.0402   -0.0000   -0.0000   -0.0849    0.0139    0.0000
       56 NB     5d0        0.0000    0.0000    0.0000    0.0045   -0.0250    0.0000   -0.0000    0.0346   -0.0091    0.0000
       57 NB     6d0       -0.0000   -0.0000   -0.0000   -0.0046    0.0122   -0.0000   -0.0000   -0.0115   -0.0002    0.0000
       58 NB     7d0        0.0000    0.0000    0.0000    0.0045   -0.0054   -0.0000   -0.0000    0.0041   -0.0007    0.0000
       59 NB     8d0       -0.0000   -0.0000   -0.0000   -0.0057    0.0013    0.0000    0.0000   -0.0012    0.0010   -0.0000
       60 NB     9d0       -0.0000    0.0000    0.0000    0.0039   -0.0002   -0.0000   -0.0000   -0.0003    0.0002   -0.0000
       61 NB    10d0        0.0000    0.0000    0.0000    0.0015    0.0007   -0.0000   -0.0000   -0.0011    0.0001    0.0000
       62 NB     3d1+      -0.0000   -0.0000    0.8878   -0.0000    0.0000   -0.0078   -0.0000    0.0000    0.0000    0.0010
       63 NB     4d1+      -0.0000    0.0000   -0.0036    0.0000   -0.0000    0.1177    0.0000   -0.0000   -0.0000   -0.0280
       64 NB     5d1+       0.0000   -0.0000    0.0043   -0.0000    0.0000   -0.0501   -0.0000    0.0000   -0.0000    0.0234
       65 NB     6d1+      -0.0000    0.0000   -0.0044    0.0000   -0.0000    0.0161    0.0000   -0.0000   -0.0000    0.0170
       66 NB     7d1+       0.0000   -0.0000    0.0043   -0.0000    0.0000   -0.0046   -0.0000    0.0000    0.0000    0.0077
       67 NB     8d1+       0.0000    0.0000   -0.0054    0.0000   -0.0000    0.0008    0.0000   -0.0000   -0.0000   -0.0014
       68 NB     9d1+      -0.0000   -0.0000    0.0036   -0.0000    0.0000   -0.0004   -0.0000    0.0000    0.0000   -0.0014
       69 NB    10d1+      -0.0000   -0.0000    0.0013   -0.0000   -0.0000    0.0012    0.0000   -0.0000   -0.0000    0.0002
       70 NB     3d2+      -0.0000    0.0000   -0.4590    0.0000    0.0000    0.0058    0.0000    0.0000    0.0000   -0.0007
       71 NB     4d2+      -0.0000   -0.0000    0.0029   -0.0000   -0.0000   -0.0792   -0.0000   -0.0000   -0.0000    0.0432
       72 NB     5d2+       0.0000    0.0000   -0.0033    0.0000    0.0000    0.0346    0.0000    0.0000    0.0000    0.0161
       73 NB     6d2+       0.0000   -0.0000    0.0032   -0.0000   -0.0000   -0.0117   -0.0000   -0.0000    0.0000    0.0137
       74 NB     7d2+      -0.0000    0.0000   -0.0030    0.0000    0.0000    0.0037    0.0000   -0.0000   -0.0000    0.0023
       75 NB     8d2+       0.0000   -0.0000    0.0035   -0.0000    0.0000   -0.0007   -0.0000    0.0000   -0.0000   -0.0008
       76 NB     9d2+      -0.0000    0.0000   -0.0023    0.0000   -0.0000    0.0001    0.0000   -0.0000   -0.0000   -0.0009
       77 NB    10d2+      -0.0000    0.0000   -0.0005    0.0000   -0.0000   -0.0009   -0.0000    0.0000    0.0000    0.0003
       78 NB     4f3-      -0.0000   -0.0000   -0.0000   -0.0000    0.0000   -0.0000    0.0000    0.0000    0.0000    0.0000
       79 NB     5f3-      -0.0000   -0.0000   -0.0000    0.0000   -0.0000   -0.0000    0.0000    0.0000   -0.0000    0.0000
       80 NB     6f3-       0.0000    0.0000   -0.0000    0.0000    0.0000    0.0000   -0.0000    0.0000   -0.0000    0.0000
       81 NB     7f3-      -0.0000   -0.0000   -0.0000   -0.0000    0.0000    0.0000    0.0000   -0.0000   -0.0000    0.0000
       82 NB     8f3-      -0.0000   -0.0000   -0.0000    0.0000   -0.0000   -0.0000    0.0000   -0.0000    0.0000   -0.0000
       83 NB     4f2-       0.0038    0.0064    0.0000   -0.0000    0.0000    0.0000   -0.0191   -0.0000   -0.0000   -0.0000
       84 NB     5f2-       0.0037    0.0065    0.0000   -0.0000    0.0000    0.0000   -0.0117   -0.0000   -0.0000   -0.0000
       85 NB     6f2-      -0.0030   -0.0054   -0.0000    0.0000   -0.0000   -0.0000    0.0052    0.0000    0.0000    0.0000
       86 NB     7f2-       0.0026    0.0046    0.0000   -0.0000    0.0000    0.0000   -0.0024   -0.0000   -0.0000   -0.0000
       87 NB     8f2-       0.0020    0.0030    0.0000   -0.0000    0.0000    0.0000   -0.0018   -0.0000   -0.0000   -0.0000
       88 NB     4f1-      -0.0011    0.0010    0.0000   -0.0000    0.0000    0.0000   -0.0156   -0.0000    0.0000   -0.0000
       89 NB     5f1-      -0.0011    0.0010    0.0000   -0.0000   -0.0000    0.0000   -0.0073   -0.0000   -0.0000   -0.0000
       90 NB     6f1-       0.0008   -0.0008   -0.0000    0.0000   -0.0000   -0.0000    0.0020    0.0000   -0.0000   -0.0000
       91 NB     7f1-      -0.0007    0.0007    0.0000   -0.0000    0.0000    0.0000   -0.0008    0.0000   -0.0000   -0.0000
       92 NB     8f1-      -0.0007    0.0007    0.0000   -0.0000   -0.0000    0.0000   -0.0010   -0.0000   -0.0000    0.0000
       93 NB     4f0       -0.0000   -0.0000   -0.0000   -0.0030    0.0571   -0.0000    0.0000   -0.0158    0.0091    0.0000
       94 NB     5f0       -0.0000   -0.0000   -0.0000   -0.0032    0.0360   -0.0000    0.0000   -0.0060    0.0075    0.0000
       95 NB     6f0        0.0000    0.0000    0.0000    0.0028   -0.0159    0.0000   -0.0000    0.0013   -0.0041   -0.0000
       96 NB     7f0       -0.0000   -0.0000   -0.0000   -0.0023    0.0073   -0.0000    0.0000   -0.0007    0.0009    0.0000
       97 NB     8f0       -0.0000   -0.0000   -0.0000   -0.0011    0.0043   -0.0000    0.0000   -0.0009    0.0024    0.0000
       98 NB     4f1+      -0.0000   -0.0000    0.0010   -0.0000    0.0000   -0.0156   -0.0000    0.0000    0.0000    0.0004
       99 NB     5f1+      -0.0000   -0.0000    0.0010   -0.0000    0.0000   -0.0073   -0.0000    0.0000    0.0000    0.0046
      100 NB     6f1+       0.0000    0.0000   -0.0008    0.0000   -0.0000    0.0020    0.0000   -0.0000   -0.0000    0.0026
      101 NB     7f1+      -0.0000   -0.0000    0.0007   -0.0000    0.0000   -0.0008   -0.0000    0.0000    0.0000    0.0019
      102 NB     8f1+      -0.0000   -0.0000    0.0007   -0.0000    0.0000   -0.0010   -0.0000    0.0000    0.0000   -0.0008
      103 NB     4f2+      -0.0000    0.0000   -0.0064    0.0000    0.0000    0.0191    0.0000    0.0000    0.0000   -0.0009
      104 NB     5f2+      -0.0000    0.0000   -0.0065    0.0000    0.0000    0.0117    0.0000    0.0000    0.0000   -0.0022
      105 NB     6f2+       0.0000   -0.0000    0.0054   -0.0000   -0.0000   -0.0052   -0.0000    0.0000   -0.0000    0.0004
      106 NB     7f2+      -0.0000    0.0000   -0.0046    0.0000   -0.0000    0.0024    0.0000   -0.0000   -0.0000   -0.0004
      107 NB     8f2+      -0.0000    0.0000   -0.0030    0.0000   -0.0000    0.0018    0.0000   -0.0000   -0.0000   -0.0004
      108 NB     4f3+       0.0000    0.0000    0.0000    0.0027    0.0359    0.0000    0.0000    0.0271    0.0071    0.0000
      109 NB     5f3+       0.0000    0.0000    0.0000    0.0026    0.0226    0.0000    0.0000    0.0143    0.0046   -0.0000
      110 NB     6f3+      -0.0000   -0.0000   -0.0000   -0.0021   -0.0099   -0.0000   -0.0000   -0.0057   -0.0030   -0.0000
      111 NB     7f3+       0.0000    0.0000    0.0000    0.0018    0.0046   -0.0000    0.0000    0.0026    0.0005   -0.0000
      112 NB     8f3+       0.0000    0.0000    0.0000    0.0012    0.0027   -0.0000   -0.0000    0.0021    0.0016    0.0000
      113 NB     5g4-      -0.0002    0.0017    0.0000   -0.0000   -0.0000    0.0000   -0.0156   -0.0000    0.0000   -0.0000
      114 NB     6g4-       0.0002   -0.0017   -0.0000    0.0000   -0.0000   -0.0000    0.0068    0.0000    0.0000    0.0000
      115 NB     7g4-      -0.0002    0.0018    0.0000   -0.0000    0.0000    0.0000   -0.0035   -0.0000   -0.0000   -0.0000
      116 NB     8g4-       0.0002   -0.0018   -0.0000    0.0000   -0.0000   -0.0000    0.0017    0.0000    0.0000    0.0000
      117 NB     5g3-       0.0000    0.0000    0.0000   -0.0000    0.0000    0.0000   -0.0000    0.0000    0.0000   -0.0000
      118 NB     6g3-      -0.0000   -0.0000   -0.0000   -0.0000   -0.0000   -0.0000    0.0000   -0.0000    0.0000    0.0000
      119 NB     7g3-       0.0000    0.0000    0.0000    0.0000   -0.0000    0.0000   -0.0000   -0.0000   -0.0000   -0.0000
      120 NB     8g3-      -0.0000   -0.0000   -0.0000    0.0000    0.0000    0.0000    0.0000   -0.0000    0.0000    0.0000
      121 NB     5g2-      -0.0004   -0.0017   -0.0000    0.0000   -0.0000   -0.0000    0.0002    0.0000    0.0000   -0.0000
      122 NB     6g2-       0.0004    0.0017    0.0000   -0.0000    0.0000    0.0000   -0.0009   -0.0000   -0.0000   -0.0000
      123 NB     7g2-      -0.0004   -0.0018   -0.0000    0.0000    0.0000   -0.0000    0.0007    0.0000    0.0000    0.0000
      124 NB     8g2-       0.0005    0.0018    0.0000   -0.0000   -0.0000    0.0000   -0.0003    0.0000   -0.0000   -0.0000
      125 NB     5g1-       0.0013    0.0003    0.0000   -0.0000   -0.0000    0.0000   -0.0200   -0.0000    0.0000   -0.0000
      126 NB     6g1-      -0.0013   -0.0004   -0.0000    0.0000    0.0000   -0.0000    0.0083    0.0000    0.0000    0.0000
      127 NB     7g1-       0.0014    0.0004    0.0000   -0.0000    0.0000    0.0000   -0.0041   -0.0000   -0.0000   -0.0000
      128 NB     8g1-      -0.0014   -0.0003   -0.0000    0.0000   -0.0000   -0.0000    0.0020    0.0000    0.0000    0.0000
      129 NB     5g0       -0.0000   -0.0000   -0.0000   -0.0030    0.0038   -0.0000    0.0000   -0.0314   -0.0001    0.0000
      130 NB     6g0       -0.0000    0.0000    0.0000    0.0030   -0.0022    0.0000    0.0000    0.0137   -0.0003   -0.0000
      131 NB     7g0        0.0000   -0.0000   -0.0000   -0.0032    0.0012   -0.0000   -0.0000   -0.0073    0.0002   -0.0000
      132 NB     8g0        0.0000    0.0000    0.0000    0.0032   -0.0006   -0.0000   -0.0000    0.0035   -0.0001    0.0000
      133 NB     5g1+       0.0000   -0.0000    0.0003   -0.0000   -0.0000   -0.0200   -0.0000    0.0000    0.0000    0.0027
      134 NB     6g1+      -0.0000    0.0000   -0.0004    0.0000    0.0000    0.0083    0.0000   -0.0000    0.0000   -0.0013
      135 NB     7g1+       0.0000   -0.0000    0.0004   -0.0000   -0.0000   -0.0041   -0.0000    0.0000    0.0000    0.0008
      136 NB     8g1+      -0.0000    0.0000   -0.0003    0.0000   -0.0000    0.0020    0.0000   -0.0000   -0.0000   -0.0003
      137 NB     5g2+       0.0000   -0.0000    0.0017   -0.0000    0.0000   -0.0002   -0.0000   -0.0000    0.0000   -0.0003
      138 NB     6g2+      -0.0000    0.0000   -0.0017    0.0000   -0.0000    0.0009    0.0000    0.0000   -0.0000   -0.0002
      139 NB     7g2+       0.0000   -0.0000    0.0018   -0.0000    0.0000   -0.0007   -0.0000    0.0000    0.0000    0.0000
      140 NB     8g2+      -0.0000    0.0000   -0.0018    0.0000   -0.0000    0.0003    0.0000   -0.0000   -0.0000   -0.0001
      141 NB     5g3+      -0.0000   -0.0000   -0.0000   -0.0007   -0.0166   -0.0000   -0.0000   -0.0206   -0.0024    0.0000
      142 NB     6g3+       0.0000    0.0000    0.0000    0.0007    0.0102    0.0000    0.0000    0.0095    0.0025   -0.0000
      143 NB     7g3+      -0.0000   -0.0000   -0.0000   -0.0008   -0.0062   -0.0000   -0.0000   -0.0053   -0.0013    0.0000
      144 NB     8g3+       0.0000    0.0000    0.0000    0.0008    0.0031   -0.0000   -0.0000    0.0025    0.0007    0.0000
      145 NB     5g4+      -0.0000   -0.0000    0.0017   -0.0000    0.0000   -0.0156   -0.0000    0.0000    0.0000    0.0019
      146 NB     6g4+       0.0000    0.0000   -0.0017    0.0000   -0.0000    0.0068    0.0000   -0.0000   -0.0000   -0.0011
      147 NB     7g4+      -0.0000   -0.0000    0.0018   -0.0000    0.0000   -0.0035   -0.0000    0.0000    0.0000    0.0007
      148 NB     8g4+       0.0000    0.0000   -0.0018    0.0000   -0.0000    0.0017    0.0000   -0.0000   -0.0000   -0.0002
      149 NB     6h5-      -0.0013   -0.0010   -0.0000    0.0000   -0.0000   -0.0000    0.0011    0.0000   -0.0000   -0.0000
      150 NB     7h5-       0.0012    0.0010    0.0000   -0.0000    0.0000    0.0000   -0.0011   -0.0000    0.0000   -0.0000
      151 NB     6h4-       0.0003   -0.0018   -0.0000    0.0000    0.0000   -0.0000    0.0081    0.0000   -0.0000    0.0000
      152 NB     7h4-      -0.0003    0.0018    0.0000   -0.0000    0.0000    0.0000   -0.0046   -0.0000   -0.0000   -0.0000
      153 NB     6h3-      -0.0000   -0.0000   -0.0000    0.0000   -0.0000   -0.0000    0.0000    0.0000   -0.0000    0.0000
      154 NB     7h3-       0.0000    0.0000    0.0000    0.0000    0.0000    0.0000   -0.0000    0.0000    0.0000   -0.0000
      155 NB     6h2-      -0.0010   -0.0009   -0.0000    0.0000   -0.0000   -0.0000    0.0024    0.0000   -0.0000    0.0000
      156 NB     7h2-       0.0009    0.0008    0.0000   -0.0000    0.0000    0.0000   -0.0015   -0.0000   -0.0000   -0.0000
      157 NB     6h1-       0.0006   -0.0024   -0.0000    0.0000    0.0000   -0.0000    0.0008   -0.0000    0.0000   -0.0000
      158 NB     7h1-      -0.0006    0.0023    0.0000   -0.0000    0.0000    0.0000   -0.0012   -0.0000    0.0000   -0.0000
      159 NB     6h0       -0.0000   -0.0000   -0.0000   -0.0031    0.0028   -0.0000    0.0000   -0.0036    0.0001    0.0000
      160 NB     7h0       -0.0000    0.0000    0.0000    0.0030   -0.0023    0.0000   -0.0000    0.0030   -0.0004   -0.0000
      161 NB     6h1+       0.0000    0.0000   -0.0024    0.0000    0.0000    0.0008    0.0000    0.0000    0.0000    0.0001
      162 NB     7h1+      -0.0000   -0.0000    0.0023   -0.0000    0.0000   -0.0012   -0.0000    0.0000    0.0000    0.0001
      163 NB     6h2+       0.0000   -0.0000    0.0009   -0.0000   -0.0000   -0.0024   -0.0000   -0.0000   -0.0000    0.0001
      164 NB     7h2+      -0.0000    0.0000   -0.0008    0.0000    0.0000    0.0015    0.0000    0.0000    0.0000   -0.0002
      165 NB     6h3+       0.0000   -0.0000   -0.0000   -0.0006    0.0041    0.0000   -0.0000    0.0091    0.0006    0.0000
      166 NB     7h3+      -0.0000    0.0000    0.0000    0.0006   -0.0032   -0.0000    0.0000   -0.0049   -0.0007    0.0000
      167 NB     6h4+       0.0000    0.0000   -0.0018    0.0000   -0.0000    0.0081    0.0000   -0.0000   -0.0000   -0.0008
      168 NB     7h4+      -0.0000   -0.0000    0.0018   -0.0000    0.0000   -0.0046   -0.0000    0.0000    0.0000    0.0008
      169 NB     6h5+       0.0000   -0.0000    0.0010   -0.0000   -0.0000   -0.0011   -0.0000   -0.0000   -0.0000   -0.0000
      170 NB     7h5+      -0.0000    0.0000   -0.0010    0.0000    0.0000    0.0011    0.0000    0.0000    0.0000   -0.0001

          Orbital           21        22        23        24        25        26        27        28        29        30    
          Energy           -0.0893   -0.0834   -0.0540   -0.0540   -0.0518   -0.0518   -0.0511   -0.0183    0.0300    0.0300
          Occ. No.          0.0000    0.0000    0.0000    0.0000    0.0000    0.0000    0.0000    0.0000    0.0000    0.0000

        1 NB     1s        -0.0000    0.0000    0.0000    0.0000   -0.0000    0.0000   -0.0000    0.0000    0.0000   -0.0000
        2 NB     2s        -0.0000   -0.0000    0.0000    0.0000    0.0000    0.0000   -0.0000   -0.0000   -0.0000   -0.0000
        3 NB     3s        -0.0000    0.0002    0.0000   -0.0000   -0.0000    0.0000    0.0000    0.0004    0.0000    0.0000
        4 NB     4s        -0.0000    0.0127    0.0000   -0.0000    0.0000    0.0000    0.0014    0.0512    0.0000    0.0000
        5 NB     5s         0.0000   -0.0767    0.0000   -0.0000    0.0000    0.0000    0.0130   -0.2817   -0.0000   -0.0000
        6 NB     6s         0.0000   -0.0863   -0.0000    0.0000    0.0000    0.0000    0.0026    0.8208    0.0000    0.0000
        7 NB     7s         0.0000   -0.0120   -0.0000    0.0000    0.0000   -0.0000    0.0000    0.4183    0.0000    0.0000
        8 NB     8s         0.0000   -0.0052   -0.0000    0.0000    0.0000   -0.0000    0.0002    0.2401    0.0000    0.0000
        9 NB     9s         0.0000   -0.0015   -0.0000    0.0000    0.0000   -0.0000   -0.0000    0.0504    0.0000    0.0000
       10 NB    10s         0.0000   -0.0000   -0.0000    0.0000    0.0000   -0.0000   -0.0000    0.0045    0.0000    0.0000
       11 NB     2px        0.0000   -0.0000    0.0000   -0.0000    0.0000    0.0000    0.0000   -0.0000   -0.0000   -0.0000
       12 NB     3px       -0.0000    0.0000   -0.0000    0.0001   -0.0002   -0.0000    0.0000    0.0000   -0.0001   -0.0000
       13 NB     4px       -0.0000    0.0000   -0.0000    0.0061   -0.0185   -0.0000    0.0000    0.0000   -0.0040   -0.0000
       14 NB     5px        0.0008   -0.0000    0.0002   -0.0261   -0.0166   -0.0000    0.0000   -0.0000   -0.0084   -0.0000
       15 NB     6px        0.0004   -0.0000    0.0001   -0.0209    0.0090    0.0000   -0.0000   -0.0000    0.0183    0.0000
       16 NB     7px        0.0003   -0.0000    0.0001   -0.0186    0.0082    0.0000   -0.0000   -0.0000    0.0264    0.0000
       17 NB     8px        0.0001   -0.0000    0.0000   -0.0077    0.0035    0.0000   -0.0000   -0.0000    0.0151    0.0000
       18 NB     9px        0.0000   -0.0000    0.0000   -0.0030    0.0018    0.0000   -0.0000   -0.0000    0.0069    0.0000
       19 NB    10px        0.0000   -0.0000    0.0000   -0.0004    0.0002    0.0000   -0.0000   -0.0000    0.0010    0.0000
       20 NB     2py        0.0000    0.0000    0.0000    0.0000   -0.0000    0.0000   -0.0000   -0.0000   -0.0000    0.0000
       21 NB     3py       -0.0001   -0.0000   -0.0001   -0.0000    0.0000   -0.0002    0.0000    0.0000   -0.0000    0.0001
       22 NB     4py       -0.0501    0.0000   -0.0061   -0.0000    0.0000   -0.0185    0.0000    0.0000   -0.0000    0.0040
       23 NB     5py        0.8054   -0.0000    0.0261    0.0002    0.0000   -0.0166    0.0000   -0.0000   -0.0000    0.0084
       24 NB     6py        0.4383   -0.0000    0.0209    0.0001   -0.0000    0.0090    0.0000   -0.0000    0.0000   -0.0183
       25 NB     7py        0.3612   -0.0000    0.0186    0.0001   -0.0000    0.0082    0.0000   -0.0000    0.0000   -0.0264
       26 NB     8py        0.1398   -0.0000    0.0077    0.0000   -0.0000    0.0035    0.0000   -0.0000    0.0000   -0.0151
       27 NB     9py        0.0502   -0.0000    0.0030    0.0000   -0.0000    0.0018    0.0000   -0.0000    0.0000   -0.0069
       28 NB    10py        0.0065   -0.0000    0.0004    0.0000   -0.0000    0.0002    0.0000   -0.0000    0.0000   -0.0010
       29 NB     2pz        0.0000    0.0000    0.0000   -0.0000   -0.0000   -0.0000   -0.0000    0.0000    0.0000    0.0000
       30 NB     3pz       -0.0000   -0.0005    0.0000   -0.0000    0.0000    0.0000    0.0002   -0.0003    0.0000    0.0000
       31 NB     4pz       -0.0000   -0.0725   -0.0000    0.0000    0.0000    0.0000    0.0200   -0.0115   -0.0000   -0.0000
       32 NB     5pz        0.0000    0.7636   -0.0000    0.0000   -0.0000   -0.0000   -0.0826   -0.0015   -0.0000   -0.0000
       33 NB     6pz        0.0000    0.4570   -0.0000    0.0000   -0.0000   -0.0000   -0.0686    0.0549    0.0000    0.0000
       34 NB     7pz        0.0000    0.3808   -0.0000    0.0000   -0.0000   -0.0000   -0.0612    0.0631    0.0000    0.0000
       35 NB     8pz        0.0000    0.1495   -0.0000    0.0000   -0.0000   -0.0000   -0.0256    0.0325    0.0000    0.0000
       36 NB     9pz        0.0000    0.0549   -0.0000    0.0000   -0.0000   -0.0000   -0.0101    0.0141    0.0000    0.0000
       37 NB    10pz        0.0000    0.0071   -0.0000    0.0000   -0.0000   -0.0000   -0.0013    0.0020    0.0000    0.0000
       38 NB     3d2-       0.0007   -0.0000   -0.0002   -0.0000   -0.0000    0.0003   -0.0000    0.0000   -0.0000    0.0006
       39 NB     4d2-      -0.0432    0.0000    0.3516    0.0021   -0.0000    0.1136   -0.0000   -0.0000    0.0003   -0.5274
       40 NB     5d2-      -0.0161   -0.0000    0.5541    0.0033   -0.0000    0.2132   -0.0000    0.0000    0.0002   -0.2749
       41 NB     6d2-      -0.0137    0.0000    0.5884    0.0035   -0.0000    0.2352   -0.0000    0.0000   -0.0002    0.3019
       42 NB     7d2-      -0.0023    0.0000    0.3014    0.0018   -0.0000    0.1248   -0.0000    0.0000   -0.0003    0.5243
       43 NB     8d2-       0.0008    0.0000    0.0286    0.0002   -0.0000    0.0138   -0.0000    0.0000   -0.0001    0.2488
       44 NB     9d2-       0.0009    0.0000   -0.0058   -0.0000    0.0000   -0.0012   -0.0000    0.0000   -0.0001    0.1315
       45 NB    10d2-      -0.0003   -0.0000    0.0055    0.0000   -0.0000    0.0021   -0.0000   -0.0000    0.0000   -0.0122
       46 NB     3d1-       0.0010   -0.0000    0.0003    0.0000   -0.0000    0.0003   -0.0000   -0.0000    0.0000   -0.0005
       47 NB     4d1-      -0.0280   -0.0000   -0.1444   -0.0009   -0.0000    0.3124   -0.0000    0.0000   -0.0002    0.2654
       48 NB     5d1-       0.0234   -0.0000   -0.2124   -0.0013   -0.0000    0.5503   -0.0000    0.0000   -0.0001    0.1347
       49 NB     6d1-       0.0170   -0.0000   -0.2243   -0.0013   -0.0001    0.6046   -0.0000    0.0000    0.0001   -0.1499
       50 NB     7d1-       0.0077   -0.0000   -0.1143   -0.0007   -0.0000    0.3197   -0.0000    0.0000    0.0001   -0.2591
       51 NB     8d1-      -0.0014    0.0000   -0.0107   -0.0001   -0.0000    0.0350   -0.0000    0.0000    0.0001   -0.1226
       52 NB     9d1-      -0.0014    0.0000    0.0022    0.0000    0.0000   -0.0031    0.0000    0.0000    0.0000   -0.0646
       53 NB    10d1-       0.0002   -0.0000   -0.0021   -0.0000   -0.0000    0.0054   -0.0000   -0.0000   -0.0000    0.0061
       54 NB     3d0        0.0000   -0.0009   -0.0000    0.0000    0.0000    0.0000    0.0004    0.0008   -0.0000    0.0000
       55 NB     4d0        0.0000    0.0861    0.0000   -0.0000    0.0000    0.0000    0.3270   -0.0156    0.0000    0.0000
       56 NB     5d0        0.0000    0.0793    0.0000   -0.0000    0.0000    0.0000    0.5834    0.0123    0.0000    0.0000
       57 NB     6d0        0.0000    0.0673    0.0000   -0.0000    0.0000    0.0000    0.6449    0.0085   -0.0000   -0.0000
       58 NB     7d0        0.0000    0.0208    0.0000   -0.0000    0.0000    0.0000    0.3439    0.0075   -0.0000   -0.0000
       59 NB     8d0       -0.0000   -0.0032    0.0000   -0.0000    0.0000    0.0000    0.0390    0.0011   -0.0000   -0.0000
       60 NB     9d0       -0.0000   -0.0041   -0.0000    0.0000   -0.0000   -0.0000   -0.0024    0.0008   -0.0000   -0.0000
       61 NB    10d0        0.0000    0.0011    0.0000   -0.0000    0.0000    0.0000    0.0056   -0.0001    0.0000    0.0000
       62 NB     3d1+       0.0000   -0.0000    0.0000   -0.0003    0.0003    0.0000   -0.0000   -0.0000    0.0005    0.0000
       63 NB     4d1+      -0.0000    0.0000   -0.0009    0.1444    0.3124    0.0000   -0.0000    0.0000   -0.2654   -0.0002
       64 NB     5d1+       0.0000    0.0000   -0.0013    0.2124    0.5503    0.0000   -0.0000   -0.0000   -0.1347   -0.0001
       65 NB     6d1+       0.0000    0.0000   -0.0013    0.2243    0.6046    0.0001   -0.0000   -0.0000    0.1499    0.0001
       66 NB     7d1+       0.0000    0.0000   -0.0007    0.1143    0.3197    0.0000   -0.0000   -0.0000    0.2591    0.0001
       67 NB     8d1+      -0.0000   -0.0000   -0.0001    0.0107    0.0350    0.0000   -0.0000   -0.0000    0.1226    0.0001
       68 NB     9d1+      -0.0000   -0.0000    0.0000   -0.0022   -0.0031   -0.0000    0.0000   -0.0000    0.0646    0.0000
       69 NB    10d1+       0.0000    0.0000   -0.0000    0.0021    0.0054    0.0000   -0.0000    0.0000   -0.0061   -0.0000
       70 NB     3d2+      -0.0000   -0.0000    0.0000   -0.0002   -0.0003   -0.0000    0.0000   -0.0000    0.0006    0.0000
       71 NB     4d2+       0.0000    0.0000   -0.0021    0.3516   -0.1136   -0.0000    0.0000    0.0000   -0.5274   -0.0003
       72 NB     5d2+       0.0000    0.0000   -0.0033    0.5541   -0.2132   -0.0000    0.0000   -0.0000   -0.2749   -0.0002
       73 NB     6d2+       0.0000    0.0000   -0.0035    0.5884   -0.2352   -0.0000    0.0000   -0.0000    0.3019    0.0002
       74 NB     7d2+       0.0000    0.0000   -0.0018    0.3014   -0.1248   -0.0000    0.0000   -0.0000    0.5243    0.0003
       75 NB     8d2+      -0.0000   -0.0000   -0.0002    0.0286   -0.0138   -0.0000    0.0000   -0.0000    0.2488    0.0001
       76 NB     9d2+      -0.0000    0.0000    0.0000   -0.0058    0.0012    0.0000   -0.0000    0.0000    0.1315    0.0001
       77 NB    10d2+       0.0000    0.0000   -0.0000    0.0055   -0.0021   -0.0000    0.0000    0.0000   -0.0122   -0.0000
       78 NB     4f3-      -0.0000    0.0000    0.0000    0.0000    0.0000   -0.0000   -0.0000   -0.0000    0.0000   -0.0000
       79 NB     5f3-      -0.0000   -0.0000   -0.0000   -0.0000   -0.0000   -0.0000    0.0000    0.0000   -0.0000    0.0000
       80 NB     6f3-      -0.0000   -0.0000   -0.0000   -0.0000   -0.0000    0.0000    0.0000   -0.0000   -0.0000    0.0000
       81 NB     7f3-      -0.0000   -0.0000   -0.0000   -0.0000   -0.0000   -0.0000    0.0000   -0.0000   -0.0000    0.0000
       82 NB     8f3-       0.0000    0.0000    0.0000    0.0000    0.0000   -0.0000   -0.0000    0.0000    0.0000   -0.0000
       83 NB     4f2-       0.0009   -0.0000    0.0114    0.0001   -0.0000    0.0079   -0.0000   -0.0000    0.0000   -0.0269
       84 NB     5f2-       0.0022   -0.0000   -0.0072   -0.0000    0.0000   -0.0025    0.0000    0.0000   -0.0000    0.0187
       85 NB     6f2-      -0.0004    0.0000   -0.0081   -0.0000    0.0000   -0.0038    0.0000    0.0000   -0.0000    0.0197
       86 NB     7f2-       0.0004   -0.0000   -0.0056   -0.0000    0.0000   -0.0023    0.0000    0.0000   -0.0000    0.0132
       87 NB     8f2-       0.0004    0.0000    0.0044    0.0000   -0.0000    0.0020   -0.0000   -0.0000    0.0000   -0.0096
       88 NB     4f1-       0.0004   -0.0000   -0.0041   -0.0000   -0.0000    0.0068   -0.0000    0.0000   -0.0000    0.0114
       89 NB     5f1-       0.0046    0.0000    0.0038    0.0000    0.0000   -0.0089    0.0000   -0.0000    0.0000   -0.0103
       90 NB     6f1-       0.0026    0.0000    0.0039    0.0000    0.0000   -0.0094    0.0000   -0.0000    0.0000   -0.0102
       91 NB     7f1-       0.0019    0.0000    0.0028    0.0000    0.0000   -0.0069    0.0000   -0.0000    0.0000   -0.0070
       92 NB     8f1-      -0.0008   -0.0000   -0.0021   -0.0000   -0.0000    0.0051   -0.0000    0.0000   -0.0000    0.0049
       93 NB     4f0        0.0000    0.0006   -0.0000    0.0000   -0.0000    0.0000    0.0022   -0.0098   -0.0000   -0.0000
       94 NB     5f0        0.0000    0.0036   -0.0000    0.0000   -0.0000   -0.0000   -0.0107   -0.0065   -0.0000   -0.0000
       95 NB     6f0       -0.0000    0.0025   -0.0000    0.0000   -0.0000   -0.0000   -0.0101    0.0056   -0.0000   -0.0000
       96 NB     7f0        0.0000    0.0018   -0.0000    0.0000   -0.0000   -0.0000   -0.0079    0.0002   -0.0000   -0.0000
       97 NB     8f0        0.0000   -0.0008    0.0000   -0.0000    0.0000    0.0000    0.0056   -0.0036    0.0000    0.0000
       98 NB     4f1+       0.0000   -0.0000   -0.0000    0.0041    0.0068    0.0000   -0.0000   -0.0000   -0.0114   -0.0000
       99 NB     5f1+       0.0000   -0.0000    0.0000   -0.0038   -0.0089   -0.0000    0.0000   -0.0000    0.0103    0.0000
      100 NB     6f1+       0.0000    0.0000    0.0000   -0.0039   -0.0094   -0.0000    0.0000    0.0000    0.0102    0.0000
      101 NB     7f1+       0.0000   -0.0000    0.0000   -0.0028   -0.0069   -0.0000    0.0000    0.0000    0.0070    0.0000
      102 NB     8f1+      -0.0000   -0.0000   -0.0000    0.0021    0.0051    0.0000   -0.0000   -0.0000   -0.0049   -0.0000
      103 NB     4f2+      -0.0000   -0.0000   -0.0001    0.0114   -0.0079   -0.0000    0.0000   -0.0000   -0.0269   -0.0000
      104 NB     5f2+      -0.0000   -0.0000    0.0000   -0.0072    0.0025    0.0000   -0.0000   -0.0000    0.0187    0.0000
      105 NB     6f2+       0.0000   -0.0000    0.0000   -0.0081    0.0038    0.0000   -0.0000   -0.0000    0.0197    0.0000
      106 NB     7f2+      -0.0000   -0.0000    0.0000   -0.0056    0.0023    0.0000   -0.0000   -0.0000    0.0132    0.0000
      107 NB     8f2+      -0.0000    0.0000   -0.0000    0.0044   -0.0020   -0.0000    0.0000    0.0000   -0.0096   -0.0000
      108 NB     4f3+      -0.0000   -0.0044   -0.0000    0.0000   -0.0000    0.0000    0.0039   -0.0082   -0.0000   -0.0000
      109 NB     5f3+      -0.0000   -0.0021    0.0000   -0.0000    0.0000   -0.0000    0.0002   -0.0041    0.0000    0.0000
      110 NB     6f3+      -0.0000    0.0013    0.0000   -0.0000    0.0000   -0.0000   -0.0006    0.0041    0.0000    0.0000
      111 NB     7f3+      -0.0000   -0.0002    0.0000   -0.0000    0.0000   -0.0000   -0.0001    0.0003    0.0000    0.0000
      112 NB     8f3+       0.0000   -0.0008    0.0000    0.0000    0.0000    0.0000    0.0003   -0.0025   -0.0000   -0.0000
      113 NB     5g4-       0.0019   -0.0000   -0.0001   -0.0000   -0.0000    0.0013   -0.0000    0.0000   -0.0000    0.0007
      114 NB     6g4-      -0.0011    0.0000   -0.0001   -0.0000    0.0000   -0.0001    0.0000   -0.0000   -0.0000    0.0001
      115 NB     7g4-       0.0007   -0.0000    0.0000    0.0000   -0.0000    0.0002   -0.0000    0.0000   -0.0000    0.0001
      116 NB     8g4-      -0.0002    0.0000   -0.0000   -0.0000    0.0000   -0.0001    0.0000    0.0000   -0.0000    0.0000
      117 NB     5g3-       0.0000   -0.0000   -0.0000   -0.0000   -0.0000    0.0000   -0.0000   -0.0000   -0.0000    0.0000
      118 NB     6g3-      -0.0000    0.0000   -0.0000   -0.0000   -0.0000    0.0000   -0.0000    0.0000   -0.0000    0.0000
      119 NB     7g3-       0.0000    0.0000   -0.0000   -0.0000   -0.0000    0.0000   -0.0000   -0.0000   -0.0000    0.0000
      120 NB     8g3-      -0.0000    0.0000   -0.0000   -0.0000   -0.0000    0.0000    0.0000   -0.0000   -0.0000    0.0000
      121 NB     5g2-       0.0003    0.0000   -0.0009   -0.0000    0.0000   -0.0011    0.0000    0.0000   -0.0000    0.0017
      122 NB     6g2-       0.0002   -0.0000   -0.0007   -0.0000    0.0000   -0.0002   -0.0000    0.0000   -0.0000    0.0013
      123 NB     7g2-      -0.0000    0.0000   -0.0005   -0.0000    0.0000   -0.0003    0.0000    0.0000   -0.0000    0.0008
      124 NB     8g2-       0.0001   -0.0000   -0.0001   -0.0000    0.0000   -0.0000   -0.0000    0.0000   -0.0000    0.0002
      125 NB     5g1-       0.0027   -0.0000    0.0017    0.0000    0.0000   -0.0005    0.0000    0.0000    0.0000   -0.0037
      126 NB     6g1-      -0.0013    0.0000    0.0003    0.0000    0.0000   -0.0012    0.0000   -0.0000    0.0000   -0.0009
      127 NB     7g1-       0.0008   -0.0000    0.0005    0.0000    0.0000   -0.0005    0.0000   -0.0000    0.0000   -0.0009
      128 NB     8g1-      -0.0003    0.0000    0.0001    0.0000    0.0000   -0.0003    0.0000    0.0000    0.0000   -0.0001
      129 NB     5g0        0.0000    0.0042   -0.0000    0.0000   -0.0000   -0.0000   -0.0033    0.0004   -0.0000   -0.0000
      130 NB     6g0       -0.0000   -0.0025   -0.0000    0.0000   -0.0000   -0.0000   -0.0006    0.0002   -0.0000    0.0000
      131 NB     7g0       -0.0000    0.0013   -0.0000    0.0000   -0.0000   -0.0000   -0.0012   -0.0001   -0.0000   -0.0000
      132 NB     8g0       -0.0000   -0.0006   -0.0000    0.0000    0.0000   -0.0000   -0.0001    0.0001   -0.0000   -0.0000
      133 NB     5g1+       0.0000   -0.0000    0.0000   -0.0017   -0.0005   -0.0000   -0.0000   -0.0000    0.0037    0.0000
      134 NB     6g1+      -0.0000   -0.0000    0.0000   -0.0003   -0.0012   -0.0000    0.0000   -0.0000    0.0009    0.0000
      135 NB     7g1+       0.0000    0.0000    0.0000   -0.0005   -0.0005   -0.0000    0.0000   -0.0000    0.0009    0.0000
      136 NB     8g1+      -0.0000    0.0000    0.0000   -0.0001   -0.0003   -0.0000    0.0000    0.0000    0.0001    0.0000
      137 NB     5g2+      -0.0000    0.0000    0.0000   -0.0009    0.0011    0.0000    0.0000   -0.0000    0.0017    0.0000
      138 NB     6g2+      -0.0000   -0.0000    0.0000   -0.0007    0.0002    0.0000    0.0000    0.0000    0.0013    0.0000
      139 NB     7g2+       0.0000    0.0000    0.0000   -0.0005    0.0003    0.0000    0.0000   -0.0000    0.0008    0.0000
      140 NB     8g2+      -0.0000    0.0000    0.0000   -0.0001    0.0000    0.0000    0.0000    0.0000    0.0002    0.0000
      141 NB     5g3+       0.0000    0.0032   -0.0000    0.0000    0.0000    0.0000   -0.0009    0.0025   -0.0000   -0.0000
      142 NB     6g3+      -0.0000   -0.0016   -0.0000    0.0000    0.0000    0.0000    0.0003   -0.0027   -0.0000   -0.0000
      143 NB     7g3+       0.0000    0.0010   -0.0000    0.0000    0.0000    0.0000   -0.0002    0.0014   -0.0000   -0.0000
      144 NB     8g3+       0.0000   -0.0004    0.0000   -0.0000    0.0000    0.0000    0.0001   -0.0008   -0.0000   -0.0000
      145 NB     5g4+       0.0000   -0.0000   -0.0000    0.0001    0.0013    0.0000   -0.0000   -0.0000   -0.0007   -0.0000
      146 NB     6g4+      -0.0000    0.0000   -0.0000    0.0001   -0.0001   -0.0000    0.0000    0.0000   -0.0001   -0.0000
      147 NB     7g4+       0.0000   -0.0000    0.0000   -0.0000    0.0002    0.0000   -0.0000   -0.0000   -0.0001   -0.0000
      148 NB     8g4+      -0.0000    0.0000   -0.0000    0.0000   -0.0001   -0.0000   -0.0000    0.0000   -0.0000   -0.0000
      149 NB     6h5-       0.0000   -0.0000   -0.0010   -0.0000    0.0000   -0.0004   -0.0000    0.0000   -0.0000    0.0023
      150 NB     7h5-       0.0001    0.0000    0.0002    0.0000   -0.0000    0.0001   -0.0000   -0.0000    0.0000   -0.0004
      151 NB     6h4-      -0.0008    0.0000    0.0002    0.0000    0.0000   -0.0010    0.0000   -0.0000    0.0000   -0.0008
      152 NB     7h4-       0.0008   -0.0000    0.0000    0.0000   -0.0000    0.0003   -0.0000    0.0000   -0.0000    0.0001
      153 NB     6h3-      -0.0000   -0.0000    0.0000    0.0000   -0.0000   -0.0000    0.0000   -0.0000    0.0000   -0.0000
      154 NB     7h3-       0.0000    0.0000    0.0000    0.0000   -0.0000    0.0000    0.0000    0.0000    0.0000   -0.0000
      155 NB     6h2-      -0.0001    0.0000   -0.0008   -0.0000    0.0000   -0.0004    0.0000    0.0000   -0.0000    0.0019
      156 NB     7h2-       0.0002   -0.0000    0.0001    0.0000   -0.0000    0.0001   -0.0000    0.0000    0.0000   -0.0003
      157 NB     6h1-       0.0001    0.0000    0.0005    0.0000    0.0000   -0.0013    0.0000    0.0000    0.0000   -0.0015
      158 NB     7h1-       0.0001    0.0000   -0.0000   -0.0000   -0.0000    0.0003   -0.0000    0.0000   -0.0000    0.0001
      159 NB     6h0        0.0000    0.0000   -0.0000    0.0000   -0.0000   -0.0000   -0.0016   -0.0000   -0.0000   -0.0000
      160 NB     7h0       -0.0000   -0.0004    0.0000   -0.0000    0.0000    0.0000    0.0004    0.0004    0.0000    0.0000
      161 NB     6h1+       0.0000   -0.0000    0.0000   -0.0005   -0.0013   -0.0000    0.0000   -0.0000    0.0015    0.0000
      162 NB     7h1+       0.0000    0.0000   -0.0000    0.0000    0.0003    0.0000   -0.0000   -0.0000   -0.0001   -0.0000
      163 NB     6h2+       0.0000    0.0000    0.0000   -0.0008    0.0004    0.0000   -0.0000    0.0000    0.0019    0.0000
      164 NB     7h2+      -0.0000   -0.0000   -0.0000    0.0001   -0.0001   -0.0000    0.0000   -0.0000   -0.0003   -0.0000
      165 NB     6h3+      -0.0000   -0.0015   -0.0000    0.0000   -0.0000   -0.0000   -0.0002   -0.0006   -0.0000    0.0000
      166 NB     7h3+       0.0000    0.0010    0.0000   -0.0000   -0.0000    0.0000   -0.0001    0.0008    0.0000    0.0000
      167 NB     6h4+      -0.0000    0.0000    0.0000   -0.0002   -0.0010   -0.0000    0.0000    0.0000    0.0008    0.0000
      168 NB     7h4+       0.0000   -0.0000    0.0000   -0.0000    0.0003    0.0000   -0.0000   -0.0000   -0.0001   -0.0000
      169 NB     6h5+      -0.0000    0.0000    0.0000   -0.0010    0.0004    0.0000   -0.0000    0.0000    0.0023    0.0000
      170 NB     7h5+      -0.0000   -0.0000   -0.0000    0.0002   -0.0001   -0.0000    0.0000   -0.0000   -0.0004   -0.0000

          Orbital           31        32        33        34        35        36        37        38        39        40    
[...]
         3   13       1.80703352E-01  1.08019963E+06  4.76045190E+02  7.09549533E+06  8.17617101E+06
         3   15       2.39575111E-02  4.76045143E+02  1.08019963E+06  3.31477262E+03  1.08399045E+06
         3   17       5.93855986E-02  2.68417122E-01  2.78541543E+06  6.08480112E-14  2.78541569E+06
         4    8       1.22809929E-03  1.33097335E-04  1.38117687E+03  4.29779556E-18  1.38117701E+03
         4   10       1.47916297E-01  3.05443117E+03  5.92055187E+06  4.25527339E+02  5.92403182E+06
         4   12       1.69674892E-01  5.92055194E+06  3.05443117E+03  8.71854873E+05  6.79546125E+06
         4   14       1.80703352E-01  1.08019963E+06  4.76045190E+02  7.09549533E+06  8.17617101E+06
         4   16       2.39575111E-02  4.76045143E+02  1.08019963E+06  3.31477262E+03  1.08399045E+06
         4   18       5.93855986E-02  2.68417122E-01  2.78541543E+06  6.08480112E-14  2.78541569E+06
         5    7       1.22809928E-03  1.38117687E+03  1.33097495E-04  1.83253901E-14  1.38117700E+03
         5    9       1.69674894E-01  5.92055198E+06  3.05443115E+03  8.71854891E+05  6.79546130E+06
         5   11       1.47916298E-01  3.05443124E+03  5.92055193E+06  4.25527292E+02  5.92403188E+06
         5   13       2.39575113E-02  4.76045216E+02  1.08019964E+06  3.31477254E+03  1.08399046E+06
         5   15       1.80703352E-01  1.08019967E+06  4.76045140E+02  7.09549530E+06  8.17617102E+06
         5   17       5.93855946E-02  2.78541524E+06  2.68417154E-01  7.47319624E-11  2.78541550E+06
         6    8       1.22809928E-03  1.38117687E+03  1.33097495E-04  1.83253901E-14  1.38117700E+03
         6   10       1.69674894E-01  5.92055198E+06  3.05443115E+03  8.71854891E+05  6.79546130E+06
         6   12       1.47916298E-01  3.05443124E+03  5.92055193E+06  4.25527292E+02  5.92403188E+06
         6   14       2.39575113E-02  4.76045216E+02  1.08019964E+06  3.31477254E+03  1.08399046E+06
         6   16       1.80703352E-01  1.08019967E+06  4.76045140E+02  7.09549530E+06  8.17617102E+06
         6   18       5.93855946E-02  2.78541524E+06  2.68417154E-01  7.47319624E-11  2.78541550E+06
         7    9       1.94331297E-02  5.39035315E+05  2.70536797E+02  2.95870948E-10  5.39305852E+05
         7   11       1.94331297E-02  2.70536772E+02  5.39035315E+05  1.91328207E-13  5.39305851E+05
         7   13       1.35353621E-01  1.97121167E+03  4.34343651E+06  2.91783831E-13  4.34540772E+06
         7   15       1.35353621E-01  4.34343651E+06  1.97121170E+03  3.42737319E-10  4.34540772E+06
         7   17       2.11662391E-01  9.37161986E-11  9.49129981E-15  7.09125330E+06  7.09125330E+06
         8   10       1.94331297E-02  5.39035315E+05  2.70536797E+02  2.95870948E-10  5.39305852E+05
         8   12       1.94331297E-02  2.70536772E+02  5.39035315E+05  1.91328207E-13  5.39305851E+05
         8   14       1.35353621E-01  1.97121167E+03  4.34343651E+06  2.91783831E-13  4.34540772E+06
         8   16       1.35353621E-01  4.34343651E+06  1.97121170E+03  3.42737319E-10  4.34540772E+06
         8   18       2.11662391E-01  9.37161986E-11  9.49129981E-15  7.09125330E+06  7.09125330E+06
         9   15       1.94428538E-05  7.99498474E-01  9.65535190E-07  2.28100513E+00  3.08050457E+00
        10   16       1.94428538E-05  7.99498474E-01  9.65535190E-07  2.28100513E+00  3.08050457E+00
        11   13       1.94428534E-05  7.99498451E-01  9.65529725E-07  2.28100510E+00  3.08050451E+00
        12   14       1.94428534E-05  7.99498451E-01  9.65529725E-07  2.28100510E+00  3.08050451E+00
        13   17       5.30151727E-05  3.58533010E-04  7.90004136E-01  2.30998053E-19  7.90362669E-01
        14   18       5.30151727E-05  3.58533010E-04  7.90004136E-01  2.30998053E-19  7.90362669E-01
        15   17       5.30151723E-05  7.90004130E-01  3.58533020E-04  5.73455728E-16  7.90362663E-01
        16   18       5.30151723E-05  7.90004130E-01  3.58533020E-04  5.73455728E-16  7.90362663E-01
     -----------------------------------------------------------------------------------------------
--

++ Velocity transition strengths (SO states):
   ------------------------------------------
    for osc. strength at least    1.0000000000000001E-005

      From   To        Osc. strength     Einstein coefficients Ax, Ay, Az (sec-1)    Total A (sec-1)
     -----------------------------------------------------------------------------------------------
         1    3       3.16832387E-01  3.66819513E+00  3.80655537E+07  2.25120824E-13  3.80655574E+07
         1    5       3.16832386E-01  3.80655536E+07  3.66819516E+00  1.48622787E-10  3.80655573E+07
         1    7       3.27282002E-01  1.92998200E-10  1.96355849E-13  4.72978242E+07  4.72978242E+07
         1    9       1.12486659E-05  3.36085586E+03  1.68678010E+00  1.47731829E-11  3.36254264E+03
         1   11       1.12486639E-05  1.68678227E+00  3.36085526E+03  9.11097996E-15  3.36254205E+03
         1   13       3.47841975E-03  4.93652896E+02  1.08773198E+06  3.00156927E-14  1.08822564E+06
         1   15       3.47841975E-03  1.08773198E+06  4.93652902E+02  8.02321246E-11  1.08822564E+06
         1   17       1.39059846E-04  3.24499064E-11  9.06012350E-17  4.41076665E+04  4.41076665E+04
         2    4       3.16832387E-01  3.66819513E+00  3.80655537E+07  2.25120824E-13  3.80655574E+07
         2    6       3.16832386E-01  3.80655536E+07  3.66819516E+00  1.48622787E-10  3.80655573E+07
         2    8       3.27282002E-01  1.92998200E-10  1.96355849E-13  4.72978242E+07  4.72978242E+07
         2   10       1.12486659E-05  3.36085586E+03  1.68678010E+00  1.47731829E-11  3.36254264E+03
         2   12       1.12486639E-05  1.68678227E+00  3.36085526E+03  9.11097996E-15  3.36254205E+03
         2   14       3.47841975E-03  4.93652896E+02  1.08773198E+06  3.00156927E-14  1.08822564E+06
         2   16       3.47841975E-03  1.08773198E+06  4.93652902E+02  8.02321246E-11  1.08822564E+06
         2   18       1.39059846E-04  3.24499064E-11  9.06012350E-17  4.41076665E+04  4.41076665E+04
         3    7       1.22676434E-02  1.32952815E-03  1.37968033E+04  8.12047508E-17  1.37968046E+04
         3    9       3.58011266E-01  7.39285884E+03  1.43299364E+07  1.03344901E+03  1.43383627E+07
         3   11       4.10854688E-01  1.43299365E+07  7.39285886E+03  2.11741402E+06  1.64547434E+07
         3   13       4.23547212E-01  2.52685605E+06  1.11358829E+03  1.66360715E+07  1.91640412E+07
         3   15       5.60427837E-02  1.11358819E+03  2.52685604E+06  7.77180336E+03  2.53574143E+06
         3   17       1.39223291E-01  6.29277919E-01  6.53013624E+06  1.21443707E-13  6.53013687E+06
         4    8       1.22676434E-02  1.32952815E-03  1.37968033E+04  8.12047508E-17  1.37968046E+04
         4   10       3.58011266E-01  7.39285884E+03  1.43299364E+07  1.03344901E+03  1.43383627E+07
         4   12       4.10854688E-01  1.43299365E+07  7.39285886E+03  2.11741402E+06  1.64547434E+07
         4   14       4.23547212E-01  2.52685605E+06  1.11358829E+03  1.66360715E+07  1.91640412E+07
         4   16       5.60427837E-02  1.11358819E+03  2.52685604E+06  7.77180336E+03  2.53574143E+06
         4   18       1.39223291E-01  6.29277919E-01  6.53013624E+06  1.21443707E-13  6.53013687E+06
         5    7       1.22676435E-02  1.37968034E+04  1.32953488E-03  8.18036872E-14  1.37968047E+04
         5    9       4.10854693E-01  1.43299367E+07  7.39285882E+03  2.11741407E+06  1.64547436E+07
         5   11       3.58011270E-01  7.39285904E+03  1.43299365E+07  1.03344890E+03  1.43383628E+07
         5   13       5.60427846E-02  1.11358835E+03  2.52685608E+06  7.77180319E+03  2.53574147E+06
         5   15       4.23547213E-01  2.52685614E+06  1.11358818E+03  1.66360715E+07  1.91640412E+07
         5   17       1.39223281E-01  6.53013581E+06  6.29277969E-01  1.72928609E-10  6.53013644E+06
         6    8       1.22676435E-02  1.37968034E+04  1.32953488E-03  8.18036872E-14  1.37968047E+04
         6   10       4.10854693E-01  1.43299367E+07  7.39285882E+03  2.11741407E+06  1.64547436E+07
         6   12       3.58011270E-01  7.39285904E+03  1.43299365E+07  1.03344890E+03  1.43383628E+07
         6   14       5.60427846E-02  1.11358835E+03  2.52685608E+06  7.77180319E+03  2.53574147E+06
         6   16       4.23547213E-01  2.52685614E+06  1.11358818E+03  1.66360715E+07  1.91640412E+07
         6   18       1.39223281E-01  6.53013581E+06  6.29277969E-01  1.72928609E-10  6.53013644E+06
         7    9       5.59733750E-02  1.55259247E+06  7.79231682E+02  8.67228357E-10  1.55337170E+06
         7   11       5.59733750E-02  7.79231605E+02  1.55259247E+06  5.62810476E-13  1.55337170E+06
         7   13       3.85573713E-01  5.61529158E+03  1.23729292E+07  8.81690143E-13  1.23785445E+07
         7   15       3.85573713E-01  1.23729292E+07  5.61529166E+03  9.48176747E-10  1.23785445E+07
         7   17       5.90741139E-01  2.54050019E-10  3.00348610E-14  1.97914688E+07  1.97914688E+07
         8   10       5.59733750E-02  1.55259247E+06  7.79231682E+02  8.67228357E-10  1.55337170E+06
         8   12       5.59733750E-02  7.79231605E+02  1.55259247E+06  5.62810476E-13  1.55337170E+06
         8   14       3.85573713E-01  5.61529158E+03  1.23729292E+07  8.81690143E-13  1.23785445E+07
         8   16       3.85573713E-01  1.23729292E+07  5.61529166E+03  9.48176747E-10  1.23785445E+07
         8   18       5.90741139E-01  2.54050019E-10  3.00348610E-14  1.97914688E+07  1.97914688E+07
         9   13       2.09291982E-03  3.99139301E-04  3.30502946E+02  1.09774538E+00  3.31601090E+02
         9   15       5.70954189E-03  3.30502994E+02  3.99140766E-04  5.74113351E+02  9.04616745E+02
         9   17       1.06323566E-02  2.87513924E+03  1.44300554E+00  1.01874824E-15  2.87658224E+03
        10   14       2.09291982E-03  3.99139301E-04  3.30502946E+02  1.09774538E+00  3.31601090E+02
        10   16       5.70954189E-03  3.30502994E+02  3.99140766E-04  5.74113351E+02  9.04616745E+02
        10   18       1.06323566E-02  2.87513924E+03  1.44300554E+00  1.01874824E-15  2.87658224E+03
        11   13       5.70954159E-03  3.30502956E+02  3.99139624E-04  5.74113341E+02  9.04616696E+02
        11   15       2.09291979E-03  3.99142851E-04  3.30502941E+02  1.09774542E+00  3.31601086E+02
        11   17       1.06323566E-02  1.44300542E+00  2.87513924E+03  7.66262712E-16  2.87658225E+03
        12   14       5.70954159E-03  3.30502956E+02  3.99139624E-04  5.74113341E+02  9.04616696E+02
        12   16       2.09291979E-03  3.99142851E-04  3.30502941E+02  1.09774542E+00  3.31601086E+02
        12   18       1.06323566E-02  1.44300542E+00  2.87513924E+03  7.66262712E-16  2.87658225E+03
        13   17       1.66036580E-01  1.12288234E+00  2.47419812E+03  1.52082644E-18  2.47532100E+03
        14   18       1.66036580E-01  1.12288234E+00  2.47419812E+03  1.52082644E-18  2.47532100E+03
        15   17       1.66036578E-01  2.47419810E+03  1.12288236E+00  3.40734094E-14  2.47532098E+03
        16   18       1.66036578E-01  2.47419810E+03  1.12288236E+00  3.40734094E-14  2.47532098E+03
     -----------------------------------------------------------------------------------------------
--

++ Length and velocity gauge comparison (SO states):

 --------------------------------------------------
 A comparison between the dipole oscillator strengths in 
 length and velocity gauge will be performed

 All dipole oscillator differences above the tolerance of   0.10000000000000001       will be printed 

 Due to basis set deficiency these oscillator may be problematic 

 The tolerance is defined as ABS(1-O_l/O_v) 
 O_l : dipole oscillator strength in length gauge
 O_p : dipole oscillator strength in velocity gauge
 --------------------------------------------------

  Problematic transitions have been found

      From   To       Difference (%) Osc. st. (len.) Osc. st. (vel.)
     ---------------------------------------------------------------
         1    3            22.867533  3.89284136E-01  3.16832387E-01
         1    5            22.867533  3.89284136E-01  3.16832386E-01
         1    7            24.788829  4.08411376E-01  3.27282002E-01
         1    9           341.104707  4.96183948E-05  1.12486659E-05
         1   11           341.104742  4.96183900E-05  1.12486639E-05
         1   13            19.117785  2.81342295E-03  3.47841975E-03
         1   15            19.117785  2.81342295E-03  3.47841975E-03
         1   17           337.542801  6.08446347E-04  1.39059846E-04
         2    4            22.867533  3.89284136E-01  3.16832387E-01
         2    6            22.867533  3.89284136E-01  3.16832386E-01
         2    8            24.788829  4.08411376E-01  3.27282002E-01
         2   10           341.104707  4.96183948E-05  1.12486659E-05
         2   12           341.104742  4.96183900E-05  1.12486639E-05
         2   14            19.117785  2.81342295E-03  3.47841975E-03
         2   16            19.117785  2.81342295E-03  3.47841975E-03
         2   18           337.542801  6.08446347E-04  1.39059846E-04
         3    7            89.989118  1.22809929E-03  1.22676434E-02
         3    9            58.683899  1.47916297E-01  3.58011266E-01
         3   11            58.701970  1.69674892E-01  4.10854688E-01
         3   13            57.335724  1.80703352E-01  4.23547212E-01
         3   15            57.251390  2.39575111E-02  5.60427837E-02
         3   17            57.345069  5.93855986E-02  1.39223291E-01
         4    8            89.989118  1.22809929E-03  1.22676434E-02
         4   10            58.683899  1.47916297E-01  3.58011266E-01
         4   12            58.701970  1.69674892E-01  4.10854688E-01
         4   14            57.335724  1.80703352E-01  4.23547212E-01
         4   16            57.251390  2.39575111E-02  5.60427837E-02
         4   18            57.345069  5.93855986E-02  1.39223291E-01
         5    7            89.989118  1.22809928E-03  1.22676435E-02
         5    9            58.701970  1.69674894E-01  4.10854693E-01
         5   11            58.683899  1.47916298E-01  3.58011270E-01
         5   13            57.251390  2.39575113E-02  5.60427846E-02
         5   15            57.335724  1.80703352E-01  4.23547213E-01
         5   17            57.345069  5.93855946E-02  1.39223281E-01
         6    8            89.989118  1.22809928E-03  1.22676435E-02
         6   10            58.701970  1.69674894E-01  4.10854693E-01
         6   12            58.683899  1.47916298E-01  3.58011270E-01
         6   14            57.251390  2.39575113E-02  5.60427846E-02
         6   16            57.335724  1.80703352E-01  4.23547213E-01
         6   18            57.345069  5.93855946E-02  1.39223281E-01
         7    9            65.281476  1.94331297E-02  5.59733750E-02
         7   11            65.281476  1.94331297E-02  5.59733750E-02
         7   13            64.895527  1.35353621E-01  3.85573713E-01
         7   15            64.895527  1.35353621E-01  3.85573713E-01
         7   17            64.170027  2.11662391E-01  5.90741139E-01
         8   10            65.281476  1.94331297E-02  5.59733750E-02
         8   12            65.281476  1.94331297E-02  5.59733750E-02
         8   14            64.895527  1.35353621E-01  3.85573713E-01
         8   16            64.895527  1.35353621E-01  3.85573713E-01
         8   18            64.170027  2.11662391E-01  5.90741139E-01
         9   13      --------------- below threshold  2.09291982E-03
         9   15            99.659467  1.94428538E-05  5.70954189E-03
         9   17      --------------- below threshold  1.06323566E-02
        10   14      --------------- below threshold  2.09291982E-03
        10   16            99.659467  1.94428538E-05  5.70954189E-03
        10   18      --------------- below threshold  1.06323566E-02
        11   13            99.659467  1.94428534E-05  5.70954159E-03
        11   15      --------------- below threshold  2.09291979E-03
        11   17      --------------- below threshold  1.06323566E-02
        12   14            99.659467  1.94428534E-05  5.70954159E-03
        12   16      --------------- below threshold  2.09291979E-03
        12   18      --------------- below threshold  1.06323566E-02
        13   17            99.968070  5.30151727E-05  1.66036580E-01
        14   18            99.968070  5.30151727E-05  1.66036580E-01
        15   17            99.968070  5.30151723E-05  1.66036578E-01
        16   18            99.968070  5.30151723E-05  1.66036578E-01
     ---------------------------------------------------------------

 Number of problematic transitions =                    66

--

 Electric-dipole - electric-octupole not included
++ I/O STATISTICS
 
  I. General I/O information
  - - - - - - - - - - - - - - - - - - - - - - - - - - - - - - - - - - - - - - - - - - -
  Unit  Name          Flsize      Write/Read            MBytes           Write/Read
                      (MBytes)       Calls              In/Out           Time, sec.
  - - - - - - - - - - - - - - - - - - - - - - - - - - - - - - - - - - - - - - - - - - -
   1  SCRATCH           0.00 .       9/      45 .      0.0/      0.0 .       0/       0
   2  ANNI              0.00 .       0/       0 .      0.0/      0.0 .       0/       0
   3  RUNFILE          14.67 .     322/    9923 .      2.3/     72.0 .       0/       0
   4  ONEINT            5.14 .       0/   22237 .      0.0/   3722.5 .       0/       0
   5  JOBIPH            5.92 .       0/      92 .      0.0/      0.7 .       0/       0
   6  ORDINT          403.03 .       1/    3225 .      0.0/    806.0 .       0/       0
  - - - - - - - - - - - - - - - - - - - - - - - - - - - - - - - - - - - - - - - - - - -
   *  TOTAL           428.76 .     332/   35522 .      2.3/   4601.2 .       0/       0
  - - - - - - - - - - - - - - - - - - - - - - - - - - - - - - - - - - - - - - - - - - -
 
  II. I/O Access Patterns
  - - - - - - - - - - - - - - - - - - - -
  Unit  Name               % of random
                         Write/Read calls
  - - - - - - - - - - - - - - - - - - - -
   1  SCRATCH             88.9/ 100.0
   2  ANNI                 0.0/   0.0
   3  RUNFILE             28.6/  10.8
   4  ONEINT               0.0/  17.4
   5  JOBIPH               0.0/  76.1
   6  ORDINT             100.0/   0.1
  - - - - - - - - - - - - - - - - - - - -
--
--- Stop Module: rassi at Thu Jan  9 20:05:57 2025 /rc=_RC_ALL_IS_WELL_ ---
*** files: xmldump
    saved to directory /home4/s4752295/Internship/Initial_simulations/Point_charge_model/1_electron/active_space_9_non_rel/Nb/varying_bond_length
--- Module rassi spent 4 seconds ---

.##################.
.# Happy landing! #.
.##################.

    Timing: Wall=64.07 User=47.80 System=12.18

###############################################################################
Hbrk Cluster
Job 14548067 for user s4752295
Finished at: Thu Jan  9 20:05:57 CET 2025

Job details:
============

Job ID                         : 14548067
Name                           : Nb_no_c_light
User                           : s4752295
Partition                      : regularmedium
Nodes                          : node99
Number of Nodes                : 1
Cores                          : 1
Number of Tasks                : 1
State                          : RUNNING  
Submit                         : 2025-01-09T20:04:45
Start                          : 2025-01-09T20:04:46
End                            : --
Reserved walltime              : 15:00:00
Used walltime                  : 00:01:11
Used CPU time                  : -- 
% User (Computation)           : --
% System (I/O)                 : --
Total memory reserved          : 25000M
Maximum memory used            : --

Acknowledgements:
=================

Please see this page for information about acknowledging Hbrk in your publications:

https://wiki.hpc.rug.nl/habrok/introduction/scientific_output

################################################################################
