   This run of MOLCAS is using the pymolcas driver

                             OPE
                             OPE          NMOL  CASOP  ENMOLC A   SO
                 OPE        NMOLC        AS  OP EN  MO LC     AS  OP
                OPENM       OL CA        SO  PE NM  OL CA     SOP EN
                OP EN      MO   LC       AS  OP ENMOL  CASO   PENMOL
                OP  EN     MO   LC       AS  OP EN     MO     LC ASO
               OP   E  NMOL  C  AS       OP  EN MO     LC     AS  OP
               OP  E   NMO   LC AS        OPEN  MO     LCASOP EN   M
               O  PEN   MO  LCA  SO
            OPE   NMO   L   CAS    OP
        OPENMOL  CASOP     ENMOL   CASOPE
     OPENMOLCA   SOPENMOLCASOPEN   MOLCASOPE
    OPENMOLCAS   OP           EN   MOL    CAS
    OPENMOLCAS       OP  ENM        O     LCA
    OPENMOLCAS    OPEN  MOLCASO     P  E  NMO
    OPENMOLCAS     OP               E  N  MOL
    OPENMOLCA   SO           PENM   O  L  CAS    OPEN    MO    LCAS
    OPENMOLCA   SOP           ENM   O  L  CAS   OP  EN  MOLC  AS   O
    OPENMOLCA   SOPE           NM      O  LCA   S      OP  EN MO
    OPENMOLC                AS         O  PEN   M      OL  CA  SOPE
    OPENMO        LCASOPE  NMOL        C  ASO   P      ENMOLC     AS
    OPE     NMO      LCA  SO     P     E   NM   OL  CA SO  PE N   MO
          OPENMOLCA            SOPE   NMO        LCAS  O    P  ENMO
     OPENMOLCASOPENMOLCASOPENMOLCASOPENMOLCA
        OPENMOLCASOPENMOLCASOPENMOLCASOPE
            OPENMOLCASOPENMOLCASOPENM
               OPENMOLCASOPENMOLCA        version: o91e1abe7de707b ?
                   OPENMOLCASO
                       OPE                tag:

 OpenMolcas is free software; you can redistribute it and/or modify it
 under the terms of the GNU Lesser General Public License version 2.1.
 OpenMolcas is distributed in the hope that it will be useful, but it
 is provided "as is" and without any express or implied warranties.
 For more details see the full text of the license in the file
 LICENSE or in <http://www.gnu.org/licenses/>.

                 Copyright (C) The OpenMolcas Authors
           For the author list and the recommended citation,
                   consult the file CONTRIBUTORS.md

           *************************************************
           * pymolcas version py2.10                       *
           *   build 3068ae8b88c9345ec6cfef6fef7f1169      *
           *   (after the EMIL interpreter by V. Veryazov) *
           *************************************************

configuration info
------------------
Host name: login1 (Linux)
C Compiler ID: GNU
C flags: -std=gnu99
Fortran Compiler ID: GNU
Fortran flags: -fno-aggressive-loop-optimizations -cpp -fdefault-integer-8 -fmax-stack-var-size=1048576
Definitions: _MOLCAS_;_I8_;_LINUX_;_MKL_
Parallel: OFF (GA=OFF)


   ----------------------------------------------------------------------------------------------------------------------------------------------
  |
  |           Project: rhenium_so_cf
  |    Submitted from: /home4/s4752295/Internship/Initial_simulations/Point_charge_model/1_electron/active_space_9_non_rel/Re/varying_bond_length
  |      Scratch area: /tmp/rhenium_so_cf
  |   Save outputs to: /home4/s4752295/Internship/Initial_simulations/Point_charge_model/1_electron/active_space_9_non_rel/Re/varying_bond_length
  |            Molcas: /home4/s4752295/Internship/Molcas/recomp_try/OpenMolcas-master/build
  |
  | Scratch area is empty
  |
  |    MOLCAS_DRIVER = /home4/s4752295/Internship/Molcas/bin/pymolcas
  |    MOLCAS_NPROCS = 1
  |    MOLCAS_SOURCE = /home4/s4752295/Internship/Molcas/recomp_try/OpenMolcas-master
  | MOLCAS_STRUCTURE = 0
  |
   ----------------------------------------------------------------------------------------------------------------------------------------------

++ ---------   Input file   ---------

&SEWARD
AMFi

CLIG
$R

Basis Set
Re.ano-rcc.Roos.24s21p15d11f4g2h.11s10p9d8f4g2h.
Spherical d
Re            0.0       0.0     0.0
End of Basis

Xfield

4
0.000000,  0.0000,  0.270       -1.0
0.233827,  0.0000, -0.135       -1.0
-0.116913,  0.2025, -0.135      -1.0
-0.116913, -0.2025, -0.135      -1.0

End of input

&SCF
Occupied
34
Iterations
   50  100
End of Input

&RASSCF
LumOrb
Symmetry
1
Spin
2
Nactel
1 0 0
CIRoot
9 9 1
inactive
34
ras2
9
End of Input

>>> COPY rhenium_so_cf.JobIph $SLURM_SUBMIT_DIR/rhenium_so_cf.doublet.JobIph

>>> COPY $SLURM_SUBMIT_DIR/rhenium_so_cf.doublet.JobIph ./JOB002

&RASSI
NROFJobIph
1 All
SpinOrbit
End of Input

EOF

-- ----------------------------------

--- Start Module: seward at Thu Jan  9 20:49:48 2025 ---

()()()()()()()()()()()()()()()()()()()()()()()()()()()()()()()()()()()()()()()()()()()()()()()()()()

                                              &SEWARD

                                   only a single process is used
                       available to each process: 4.1 GB of memory, 1 thread?
                                            pid: 201073
()()()()()()()()()()()()()()()()()()()()()()()()()()()()()()()()()()()()()()()()()()()()()()()()()()

 The speed of LIGHT in this CALCULATION =   137.03599917700001     
               SEWARD will generate:
                  Multipole Moment integrals up to order  2
                  Kinetic Energy integrals
                  Nuclear Attraction integrals (point charge)
                  One-Electron Hamiltonian integrals
                  Velocity integrals
                  Relativistic Douglas-Kroll-Hess integrals:
                    - Parametrization         : EXP
                    - DKH order of Hamiltonian: 2
                    - DKH order of Properties : 0
                         - multipole moment operators
                         - electric potential operators
                         - contact operators
                  External field from     4 point(s) added to the one-electron Hamiltonian
                  Orbital angular momentum around ( 0.0000  0.0000  0.0000 )
                  Velocity quadrupole around ( 0.0000  0.0000  0.0000 )
                  Atomic mean-field integrals
                  Two-Electron Repulsion integrals

                   Integrals are discarded if absolute value <: 0.10E-13
                   Integral cutoff threshold is set to       <: 0.10E-15

++    Symmetry information:
      ---------------------

                    Character Table for C1 

                             E  
                    a        1  x, y, xy, Rz, z, xz, Ry, yz, Rx, I
--


++    Basis set information:
      ----------------------


      Basis set label: RE.ANO-RCC.ROOS.24S21P15D11F4G2H.11S10P9D8F4G2H......

      Electronic valence basis set:
      ------------------
      Associated Effective Charge  75.000000 au
      Associated Actual Charge     75.000000 au
      Nuclear Model: Point charge

      Shell  nPrim  nBasis  Cartesian Spherical Contaminant
         s      24      11        X                  
         p      21      10        X                  
         d      15       9                 X         
         f      11       8                 X         
         g       4       4                 X         
         h       2       2                 X         
--


++    Molecular structure info:
      -------------------------

                    ************************************************ 
                    **** Cartesian Coordinates / Bohr, Angstrom **** 
                    ************************************************ 

     Center  Label                x              y              z                     x              y              z
        1      RE               0.000000       0.000000       0.000000              0.000000       0.000000       0.000000
--


++    Operator info:
      --------------


  Net charge from external field:   -4.0000000000000000     
--


            Nuclear Potential Energy              0.00000000 au

                    Nuclear-External Field Potential Energy   -1111.11136819 au
                    External Field Potential Energy              13.82241410 au 


            Total Nuclear Potential Energy          -1111.11136819 au


      Basis set specifications :
      Symmetry species         a  
      Basis functions          200

 Sorry, Molden does not know how to handle
 functions with angular momentum larger than g
Note: The following floating-point exceptions are signalling: IEEE_UNDERFLOW_FLAG IEEE_DENORMAL
--- Stop Module: seward at Thu Jan  9 20:50:06 2025 /rc=_RC_ALL_IS_WELL_ ---
*** files: rhenium_so_cf.GssOrb xmldump
    saved to directory /home4/s4752295/Internship/Initial_simulations/Point_charge_model/1_electron/active_space_9_non_rel/Re/varying_bond_length
--- Module seward spent 18 seconds ---

*** symbolic link created: INPORB -> rhenium_so_cf.GssOrb
--- Start Module: scf at Thu Jan  9 20:50:06 2025 ---

()()()()()()()()()()()()()()()()()()()()()()()()()()()()()()()()()()()()()()()()()()()()()()()()()()

                                                &SCF

                                   only a single process is used
                       available to each process: 4.1 GB of memory, 1 thread?
                                            pid: 201345
()()()()()()()()()()()()()()()()()()()()()()()()()()()()()()()()()()()()()()()()()()()()()()()()()()

++    Input section:
      --------------

      Header of the integral files:
      
       Integrals generated by seward 4.2.0  , Thu Jan  9 20:49:48 2025


      Cartesian coordinates in Angstrom:
      -----------------------------------------------------
      No.  Label        X            Y            Z        
      -----------------------------------------------------
       1   RE         0.00000000   0.00000000   0.00000000
      -----------------------------------------------------
      Nuclear repulsion energy =-1111.11136819
--

++    Orbital specifications:
      -----------------------

      Symmetry species               1
                                     a
      Frozen orbitals                0
      Occupied orbitals             34
      Secondary orbitals           166
      Deleted orbitals               0
      Total number of orbitals     200
      Number of basis functions    200
--

      Molecular charge                           7.000

++    Optimization specifications:
      ----------------------------

      SCF Algorithm: Conventional
      Minimized density differences are used
      Number of density matrices in core                5
      Maximum number of NDDO SCF iterations            50
      Maximum number of HF SCF iterations             100
      Threshold for SCF energy change            0.10E-08
      Threshold for density matrix               0.10E-03
      Threshold for Fock matrix                  0.15E-03
      Threshold for linear dependence            0.10E-08
      Threshold at which DIIS is turned on       0.15E+00
      Threshold at which QNR/C2DIIS is turned on 0.75E-01
      Threshold for Norm(delta) (QNR/C2DIIS)     0.20E-04
      DIIS extrapolation of the SCF procedure
      All orbitals punched on: SCFORB
--

      Detected guessorb starting orbitals                                             


++ Convergence information
                                   SCF        iterations: Energy and convergence statistics

Iter     Tot. SCF        One-elec.       Two-elec.     Energy      Max Dij or  Max Fij      DNorm      TNorm      AccCon     Time
         Energy          Energy          Energy        Change      Delta Norm                                                in Sec.

 The total and one-electron energies are shifted by a value of     17000. a.u.

   1   -56.870686008 -4878.889585122  5933.130267300   0.00E+00    0.36E+00*   0.20E+01*    0.12E+02   0.16E+04   None         1.
   2    30.077853790 -3366.896567984  4508.085789960   0.87E+02*   0.35E+00*   0.56E+00*    0.82E+01   0.14E+04   EDIIS        1.
   3   -67.754591973 -4430.277744797  5473.634521010  -0.98E+02*   0.19E+00*   0.70E+00*    0.37E+01   0.15E+04   EDIIS        1.
   4   -67.976013423 -4688.079621734  5731.214976497  -0.22E+00*   0.23E+00*   0.30E+00*    0.62E+00   0.15E+04   EDIIS        1.
   5   -69.752603428 -4533.044708007  5574.403472765  -0.18E+01*   0.65E-01*   0.10E+00*    0.69E+00   0.15E+04   EDIIS        1.
   6   -69.697554263 -4584.869286260  5626.283100182   0.55E-01*   0.97E-01*   0.50E-01*    0.21E+00   0.15E+04   EDIIS        1.
   7   -69.809111356 -4553.277340783  5594.579597613  -0.11E+00*   0.98E-01*   0.32E-01*    0.51E-01   0.15E+04   c2DIIS       1.
   8   -69.819126336 -4549.788099305  5591.080341155  -0.10E-01*   0.56E-01*   0.77E-01*    0.33E-01   0.15E+04   c2DIIS       1.
   9   -69.832861685 -4550.074026199  5591.352532700  -0.14E-01*   0.60E-01*   0.32E-01*    0.60E-01   0.15E+04   QNRc2DIIS    1.
  10   -69.830080972 -4534.808486829  5576.089774043   0.28E-02*   0.27E-01*   0.44E-01*    0.30E-01   0.15E+04   QNRc2DIIS    1.
  11   -69.840001864 -4543.065502376  5584.336868698  -0.99E-02*   0.35E-01*   0.13E-01*    0.24E-01   0.15E+04   QNRc2DIIS    1.
  12   -69.843007894 -4544.410270631  5585.678630922  -0.30E-02*   0.45E+00*   0.18E-01*    0.72E-02   0.15E+04   QNRc2DIIS    1.
  13   -69.863785932 -4531.561659841  5572.809242094  -0.21E-01*   0.15E+00*   0.14E-01*    0.38E+00   0.15E+04   QNRc2DIIS    1.
  14   -69.865777436 -4528.183481191  5569.429071940  -0.20E-02*   0.19E+00*   0.14E-01*    0.81E-01   0.15E+04   QNRc2DIIS    1.
  15   -69.864966881 -4533.397617302  5574.644018607   0.81E-03*   0.17E+00*   0.13E-01*    0.65E-01   0.15E+04   QNRc2DIIS    1.
  16   -69.869206011 -4530.822001105  5572.064163280  -0.42E-02*   0.20E-01*   0.84E-02*    0.43E-01   0.15E+04   QNRc2DIIS    1.
  17   -69.869792823 -4531.027007249  5572.268582611  -0.59E-03*   0.29E-01*   0.20E-02*    0.19E-01   0.15E+04   QNRc2DIIS    1.
  18   -69.869852229 -4530.946880028  5572.188395984  -0.59E-04*   0.13E-01*   0.12E-02*    0.11E-01   0.15E+04   QNRc2DIIS    1.
  19   -69.869885588 -4531.206920011  5572.448402608  -0.33E-04*   0.74E-02*   0.60E-03*    0.52E-02   0.15E+04   QNRc2DIIS    1.
  20   -69.869890427 -4531.146266283  5572.387744042  -0.48E-05*   0.55E-02*   0.32E-03*    0.28E-02   0.15E+04   QNRc2DIIS    1.
  21   -69.869895847 -4531.234154841  5572.475627180  -0.54E-05*   0.54E-03*   0.12E-03     0.94E-03   0.15E+04   QNRc2DIIS    1.
  22   -69.869895971 -4531.232480557  5572.473952772  -0.12E-06*   0.13E-03*   0.65E-04     0.54E-03   0.15E+04   QNRc2DIIS    1.
  23   -69.869896002 -4531.230493078  5572.471965262  -0.31E-07*   0.81E-04*   0.20E-04     0.19E-03   0.15E+04   QNRc2DIIS    1.
  24   -69.869896009 -4531.230307528  5572.471779704  -0.75E-08*   0.12E-03*   0.18E-04     0.11E-03   0.15E+04   QNRc2DIIS    1.
  25   -69.869896016 -4531.229570255  5572.471042424  -0.70E-08*   0.11E-03*   0.13E-04     0.74E-04   0.15E+04   QNRc2DIIS    1.
  26   -69.869896021 -4531.229766317  5572.471238481  -0.45E-08*   0.15E-03*   0.15E-04     0.10E-02   0.15E+04   QNRc2DIIS    1.
  27   -69.869896026 -4531.230265119  5572.471737279  -0.47E-08*   0.40E-04*   0.98E-05     0.16E-03   0.15E+04   QNRc2DIIS    1.
  28   -69.869896026 -4531.230278014  5572.471750173  -0.69E-09    0.66E-05    0.32E-05     0.55E-02   0.15E+04   QNRc2DIIS    1.

       Convergence after 28 Macro Iterations
--

 *****************************************************************************************************************************
 *                                                                                                                           *
 *                                             SCF/KS-DFT Program, Final results                                             *
 *                                                                                                                           *
 *                                                                                                                           *
 *                                                                                                                           *
 *                                                       Final Results                                                       *
 *                                                                                                                           *
 *****************************************************************************************************************************

::    Total SCF energy                             -17069.8698960262
      One-electron energy                          -21531.2302780136
      Two-electron energy                            5572.4717501729
      Nuclear repulsion energy                      -1111.1113681856
      Kinetic energy (interpolated)                 23377.9443890873
      Virial theorem                                    0.7301698392
      Total spin, S(S+1)                                0.0000000000
      Total spin, S                                     0.0000000000
      Max non-diagonal density matrix element           0.0000091957
      Max non-diagonal Fock matrix element              0.0000036778


      All orbitals with orbital energies smaller than  E(LUMO)+0.5 are printed

++    Molecular orbitals:
      -------------------

      Title: SCF orbitals

      Molecular orbitals for symmetry species 1: a  

          Some orbital energies have been scaled by powers of 10, the power is written right after the orbital index


          Orbital            1 (1)     2         3         4         5         6         7         8         9        10    
          Energy         -264.1111 -461.7214 -404.4336 -404.4336 -404.3461 -107.0021  -89.9153  -89.9153  -89.2537  -69.6880
          Occ. No.          2.0000    2.0000    2.0000    2.0000    2.0000    2.0000    2.0000    2.0000    2.0000    2.0000

        1 RE     1s         1.0000    0.0000   -0.0000   -0.0000   -0.0000   -0.0000    0.0000    0.0000    0.0000    0.0000
        2 RE     2s        -0.0000    1.0000   -0.0000   -0.0000   -0.0034    0.0004   -0.0000   -0.0000   -0.0003    0.0000
        3 RE     3s         0.0000   -0.0004    0.0000    0.0000    0.0002    0.9993   -0.0000   -0.0000   -0.0320    0.0000
        4 RE     4s        -0.0000    0.0001   -0.0000   -0.0000   -0.0001    0.0023    0.0000    0.0000    0.0004   -0.0000
        5 RE     5s         0.0000   -0.0000    0.0000    0.0000    0.0000   -0.0003   -0.0000   -0.0000   -0.0003    0.0000
        6 RE     6s        -0.0000    0.0000   -0.0000   -0.0000   -0.0000    0.0001    0.0000    0.0000    0.0001   -0.0000
        7 RE     7s         0.0000   -0.0000    0.0000    0.0000    0.0000   -0.0001   -0.0000   -0.0000   -0.0001    0.0000
        8 RE     8s        -0.0000    0.0001   -0.0000   -0.0000   -0.0000    0.0001    0.0000    0.0000    0.0003   -0.0000
        9 RE     9s         0.0000   -0.0001    0.0000    0.0000    0.0000    0.0001   -0.0000   -0.0000   -0.0004    0.0000
       10 RE    10s        -0.0000    0.0000   -0.0000   -0.0000   -0.0000   -0.0003    0.0000    0.0000    0.0003   -0.0000
       11 RE    11s         0.0000   -0.0001    0.0000    0.0000    0.0000    0.0011   -0.0000   -0.0000   -0.0007    0.0000
       12 RE     2px       -0.0000   -0.0000   -0.0001   -1.0000    0.0000    0.0000   -0.0000   -0.0004    0.0000   -0.0000
       13 RE     3px        0.0000   -0.0000    0.0000    0.0004   -0.0000   -0.0000   -0.0001   -0.9986    0.0000   -0.0000
       14 RE     4px       -0.0000    0.0000   -0.0000   -0.0001    0.0000   -0.0000   -0.0000   -0.0033    0.0000   -0.0000
       15 RE     5px        0.0000   -0.0000    0.0000    0.0000    0.0000    0.0000    0.0000    0.0005   -0.0000    0.0000
       16 RE     6px       -0.0000    0.0000   -0.0000   -0.0000    0.0000   -0.0000   -0.0000   -0.0002    0.0000   -0.0000
       17 RE     7px        0.0000   -0.0000    0.0000    0.0001   -0.0000    0.0000    0.0000    0.0004   -0.0000    0.0000
       18 RE     8px       -0.0000    0.0000   -0.0000   -0.0001    0.0000   -0.0000   -0.0000   -0.0002    0.0000   -0.0000
       19 RE     9px        0.0000   -0.0000    0.0000    0.0001   -0.0000    0.0000   -0.0000   -0.0001    0.0000    0.0000
       20 RE    10px       -0.0000    0.0000   -0.0000   -0.0001    0.0000   -0.0000    0.0000    0.0003   -0.0000   -0.0000
       21 RE    11px        0.0000   -0.0000    0.0000    0.0001   -0.0000    0.0000   -0.0000   -0.0014    0.0000    0.0000
       22 RE     2py        0.0000    0.0000    1.0000   -0.0001   -0.0000   -0.0000    0.0004   -0.0000   -0.0000    0.0001
       23 RE     3py       -0.0000    0.0000   -0.0004    0.0000    0.0000    0.0000    0.9986   -0.0001   -0.0000    0.0005
       24 RE     4py        0.0000   -0.0000    0.0001   -0.0000   -0.0000    0.0000    0.0033   -0.0000   -0.0000    0.0004
       25 RE     5py       -0.0000    0.0000   -0.0000    0.0000   -0.0000   -0.0000   -0.0005    0.0000    0.0000   -0.0001
       26 RE     6py        0.0000   -0.0000    0.0000   -0.0000    0.0000    0.0000    0.0002   -0.0000   -0.0000    0.0001
       27 RE     7py       -0.0000    0.0000   -0.0001    0.0000    0.0000   -0.0000   -0.0004    0.0000    0.0000   -0.0002
       28 RE     8py        0.0000   -0.0000    0.0001   -0.0000   -0.0000    0.0000    0.0002   -0.0000   -0.0000    0.0002
       29 RE     9py       -0.0000    0.0000   -0.0001    0.0000    0.0000   -0.0000    0.0001   -0.0000   -0.0000   -0.0002
       30 RE    10py        0.0000   -0.0000    0.0001   -0.0000   -0.0000    0.0000   -0.0003    0.0000    0.0000    0.0002
       31 RE    11py       -0.0000    0.0000   -0.0001    0.0000    0.0000   -0.0000    0.0014   -0.0000   -0.0000   -0.0003
       32 RE     2pz        0.0000    0.0034    0.0000    0.0000    1.0000   -0.0002    0.0000    0.0000    0.0006   -0.0000
       33 RE     3pz       -0.0000    0.0002   -0.0000   -0.0000   -0.0006    0.0317    0.0000    0.0000    0.9992    0.0000
       34 RE     4pz        0.0000   -0.0001    0.0000    0.0000    0.0002    0.0002    0.0000    0.0000    0.0025   -0.0000
       35 RE     5pz       -0.0000    0.0000   -0.0000   -0.0000   -0.0001   -0.0001    0.0000    0.0000   -0.0002    0.0000
       36 RE     6pz        0.0000   -0.0000    0.0000    0.0000    0.0000    0.0001   -0.0000   -0.0000    0.0000   -0.0000
       37 RE     7pz       -0.0000    0.0000   -0.0000   -0.0000   -0.0001   -0.0002    0.0000    0.0000    0.0001    0.0000
       38 RE     8pz        0.0000   -0.0000    0.0000    0.0000    0.0001    0.0003   -0.0000   -0.0000   -0.0005   -0.0000
       39 RE     9pz       -0.0000    0.0000   -0.0000   -0.0000   -0.0001   -0.0003    0.0000    0.0000    0.0007    0.0000
       40 RE    10pz        0.0000   -0.0000    0.0000    0.0000    0.0001    0.0004   -0.0000   -0.0000   -0.0011   -0.0000
       41 RE    11pz       -0.0000    0.0001   -0.0000   -0.0000   -0.0001   -0.0006    0.0000    0.0000    0.0027    0.0000
       42 RE     3d2-       0.0000   -0.0000    0.0003   -0.0000   -0.0000   -0.0000    0.0274   -0.0000   -0.0000    0.8463
       43 RE     4d2-      -0.0000    0.0000   -0.0000    0.0000    0.0000   -0.0000    0.0018   -0.0000   -0.0000    0.0035
       44 RE     5d2-       0.0000   -0.0000    0.0000   -0.0000   -0.0000    0.0000   -0.0005    0.0000   -0.0000   -0.0005
       45 RE     6d2-      -0.0000    0.0000   -0.0000    0.0000    0.0000   -0.0000    0.0007   -0.0000   -0.0000    0.0007
       46 RE     7d2-       0.0000   -0.0000    0.0000   -0.0000   -0.0000    0.0000   -0.0010    0.0000    0.0000   -0.0008
       47 RE     8d2-      -0.0000    0.0000   -0.0000    0.0000    0.0000   -0.0000    0.0013   -0.0000   -0.0000    0.0008
       48 RE     9d2-       0.0000   -0.0000    0.0000   -0.0000   -0.0000    0.0000   -0.0012    0.0000    0.0000   -0.0004
       49 RE    10d2-      -0.0000    0.0000   -0.0000    0.0000    0.0000   -0.0000    0.0017   -0.0000   -0.0000    0.0001
       50 RE    11d2-       0.0000    0.0000   -0.0000    0.0000   -0.0000    0.0000   -0.0017    0.0000    0.0000    0.0008
       51 RE     3d1-       0.0000    0.0000    0.0006   -0.0000   -0.0000    0.0000    0.0443   -0.0000   -0.0000   -0.5327
       52 RE     4d1-      -0.0000   -0.0000   -0.0002    0.0000    0.0000    0.0000    0.0025   -0.0000   -0.0000   -0.0026
       53 RE     5d1-       0.0000    0.0000    0.0000   -0.0000   -0.0000   -0.0000   -0.0007    0.0000   -0.0000    0.0004
       54 RE     6d1-      -0.0000   -0.0000   -0.0000    0.0000    0.0000    0.0000    0.0009   -0.0000   -0.0000   -0.0006
       55 RE     7d1-       0.0000    0.0000    0.0001   -0.0000   -0.0000   -0.0000   -0.0013    0.0000    0.0000    0.0007
       56 RE     8d1-      -0.0000   -0.0000   -0.0001    0.0000    0.0000    0.0000    0.0017   -0.0000   -0.0000   -0.0007
       57 RE     9d1-       0.0000    0.0000    0.0001   -0.0000   -0.0000   -0.0000   -0.0017    0.0000    0.0000    0.0005
       58 RE    10d1-      -0.0000   -0.0000   -0.0001    0.0000    0.0000    0.0000    0.0024   -0.0000   -0.0000   -0.0003
       59 RE    11d1-       0.0000    0.0000    0.0001   -0.0000   -0.0000   -0.0000   -0.0025    0.0000    0.0000   -0.0002
       60 RE     3d0       -0.0000   -0.0002   -0.0000   -0.0000    0.0000   -0.0107   -0.0000   -0.0000   -0.0241    0.0000
       61 RE     4d0        0.0000    0.0001   -0.0000   -0.0000   -0.0000   -0.0008   -0.0000   -0.0000   -0.0023   -0.0000
       62 RE     5d0       -0.0000   -0.0000    0.0000    0.0000    0.0000    0.0002    0.0000    0.0000    0.0006    0.0000
       63 RE     6d0        0.0000    0.0000   -0.0000   -0.0000   -0.0000   -0.0003   -0.0000   -0.0000   -0.0008   -0.0000
       64 RE     7d0       -0.0000   -0.0000    0.0000    0.0000    0.0000    0.0005    0.0000    0.0000    0.0012    0.0000
       65 RE     8d0        0.0000    0.0000   -0.0000   -0.0000   -0.0000   -0.0006   -0.0000   -0.0000   -0.0015   -0.0000
       66 RE     9d0       -0.0000   -0.0000    0.0000    0.0000    0.0000    0.0006    0.0000    0.0000    0.0014    0.0000
       67 RE    10d0        0.0000    0.0000   -0.0000   -0.0000   -0.0001   -0.0010   -0.0000   -0.0000   -0.0020   -0.0000
       68 RE    11d0       -0.0000   -0.0000    0.0000    0.0000    0.0001    0.0011    0.0000    0.0000    0.0019    0.0000
       69 RE     3d1+      -0.0000   -0.0000   -0.0000   -0.0006    0.0000   -0.0000   -0.0000   -0.0443    0.0000    0.0000
       70 RE     4d1+       0.0000    0.0000    0.0000    0.0002   -0.0000   -0.0000   -0.0000   -0.0025    0.0000    0.0000
       71 RE     5d1+      -0.0000   -0.0000   -0.0000   -0.0000    0.0000    0.0000    0.0000    0.0007    0.0000   -0.0000
       72 RE     6d1+       0.0000    0.0000    0.0000    0.0000   -0.0000   -0.0000   -0.0000   -0.0009    0.0000    0.0000
       73 RE     7d1+      -0.0000   -0.0000   -0.0000   -0.0001    0.0000    0.0000    0.0000    0.0013   -0.0000   -0.0000
       74 RE     8d1+       0.0000    0.0000    0.0000    0.0001   -0.0000   -0.0000   -0.0000   -0.0017    0.0000    0.0000
       75 RE     9d1+      -0.0000   -0.0000   -0.0000   -0.0001    0.0000    0.0000    0.0000    0.0017   -0.0000   -0.0000
       76 RE    10d1+       0.0000    0.0000    0.0000    0.0001   -0.0000   -0.0000   -0.0000   -0.0024    0.0000    0.0000
       77 RE    11d1+      -0.0000   -0.0000   -0.0000   -0.0001    0.0000    0.0000    0.0000    0.0025   -0.0000    0.0000
       78 RE     3d2+       0.0000   -0.0000    0.0000    0.0003   -0.0000   -0.0000    0.0000    0.0274   -0.0000    0.0000
       79 RE     4d2+      -0.0000    0.0000   -0.0000   -0.0000    0.0000   -0.0000    0.0000    0.0018   -0.0000    0.0000
       80 RE     5d2+       0.0000   -0.0000    0.0000    0.0000   -0.0000    0.0000   -0.0000   -0.0005   -0.0000   -0.0000
       81 RE     6d2+      -0.0000    0.0000   -0.0000   -0.0000    0.0000   -0.0000    0.0000    0.0007   -0.0000    0.0000
       82 RE     7d2+       0.0000   -0.0000    0.0000    0.0000   -0.0000    0.0000   -0.0000   -0.0010    0.0000   -0.0000
       83 RE     8d2+      -0.0000    0.0000   -0.0000   -0.0000    0.0000   -0.0000    0.0000    0.0013   -0.0000    0.0000
       84 RE     9d2+       0.0000   -0.0000    0.0000    0.0000   -0.0000    0.0000   -0.0000   -0.0012    0.0000   -0.0000
       85 RE    10d2+      -0.0000    0.0000   -0.0000   -0.0000    0.0000   -0.0000    0.0000    0.0017   -0.0000    0.0000
       86 RE    11d2+       0.0000    0.0000   -0.0000   -0.0000   -0.0000    0.0000   -0.0000   -0.0017    0.0000    0.0000
       87 RE     4f3-       0.0000   -0.0000    0.0000   -0.0000    0.0000   -0.0000   -0.0000    0.0000   -0.0000   -0.0000
       88 RE     5f3-      -0.0000   -0.0000   -0.0000    0.0000   -0.0000    0.0000    0.0000   -0.0000    0.0000    0.0000
       89 RE     6f3-       0.0000    0.0000    0.0000   -0.0000    0.0000   -0.0000   -0.0000    0.0000   -0.0000   -0.0000
       90 RE     7f3-      -0.0000   -0.0000    0.0000   -0.0000   -0.0000    0.0000    0.0000   -0.0000    0.0000    0.0000
       91 RE     8f3-       0.0000    0.0000   -0.0000    0.0000    0.0000   -0.0000   -0.0000    0.0000   -0.0000   -0.0000
       92 RE     9f3-      -0.0000   -0.0000    0.0000   -0.0000   -0.0000    0.0000   -0.0000   -0.0000    0.0000    0.0000
       93 RE    10f3-       0.0000    0.0000   -0.0000    0.0000    0.0000   -0.0000    0.0000    0.0000   -0.0000   -0.0000
       94 RE    11f3-      -0.0000   -0.0000    0.0000   -0.0000   -0.0000    0.0000   -0.0000    0.0000   -0.0000    0.0000
       95 RE     4f2-      -0.0000   -0.0000   -0.0000    0.0000    0.0000   -0.0000   -0.0032    0.0000    0.0000    0.0038
       96 RE     5f2-      -0.0000    0.0000    0.0000   -0.0000    0.0000    0.0000    0.0021   -0.0000   -0.0000   -0.0024
       97 RE     6f2-      -0.0000   -0.0000   -0.0000    0.0000    0.0000   -0.0000   -0.0024    0.0000    0.0000    0.0027
       98 RE     7f2-       0.0000    0.0000    0.0000   -0.0000   -0.0000    0.0000    0.0020   -0.0000   -0.0000   -0.0023
       99 RE     8f2-      -0.0000   -0.0000   -0.0000    0.0000    0.0000   -0.0000   -0.0017    0.0000    0.0000    0.0020
      100 RE     9f2-       0.0000    0.0000    0.0000   -0.0000   -0.0000    0.0000    0.0012   -0.0000   -0.0000   -0.0014
      101 RE    10f2-      -0.0000   -0.0000   -0.0000    0.0000    0.0000   -0.0000   -0.0009    0.0000    0.0000    0.0012
      102 RE    11f2-       0.0000   -0.0000    0.0000   -0.0000   -0.0000    0.0000   -0.0001    0.0000    0.0000   -0.0005
      103 RE     4f1-      -0.0000   -0.0000   -0.0000    0.0000    0.0000   -0.0000   -0.0015    0.0000    0.0000   -0.0015
      104 RE     5f1-       0.0000    0.0000    0.0000   -0.0000   -0.0000    0.0000    0.0010   -0.0000    0.0000    0.0009
      105 RE     6f1-      -0.0000   -0.0000   -0.0000    0.0000    0.0000   -0.0000   -0.0012    0.0000    0.0000   -0.0011
      106 RE     7f1-       0.0000    0.0000    0.0000   -0.0000   -0.0000    0.0000    0.0010   -0.0000   -0.0000    0.0009
      107 RE     8f1-      -0.0000   -0.0000   -0.0000    0.0000    0.0000   -0.0000   -0.0009    0.0000    0.0000   -0.0008
      108 RE     9f1-       0.0000    0.0000    0.0000   -0.0000    0.0000    0.0000    0.0006   -0.0000   -0.0000    0.0006
      109 RE    10f1-      -0.0000   -0.0000   -0.0000    0.0000   -0.0000   -0.0000   -0.0005    0.0000    0.0000   -0.0005
      110 RE    11f1-       0.0000    0.0000    0.0001   -0.0000    0.0000   -0.0000    0.0001   -0.0000   -0.0000    0.0003
      111 RE     4f0       -0.0000   -0.0001   -0.0000   -0.0000   -0.0000   -0.0061   -0.0000   -0.0000   -0.0022    0.0000
      112 RE     5f0        0.0000    0.0001   -0.0000   -0.0000    0.0000    0.0041    0.0000    0.0000    0.0014   -0.0000
      113 RE     6f0       -0.0000   -0.0001   -0.0000   -0.0000   -0.0000   -0.0047   -0.0000   -0.0000   -0.0016    0.0000
      114 RE     7f0        0.0000    0.0001    0.0000    0.0000    0.0000    0.0040    0.0000    0.0000    0.0014   -0.0000
      115 RE     8f0       -0.0000   -0.0001   -0.0000   -0.0000   -0.0000   -0.0036   -0.0000   -0.0000   -0.0012    0.0000
      116 RE     9f0        0.0000    0.0001    0.0000    0.0000    0.0001    0.0027    0.0000    0.0000    0.0009   -0.0000
      117 RE    10f0       -0.0000   -0.0001   -0.0000   -0.0000   -0.0001   -0.0021   -0.0000   -0.0000   -0.0007    0.0000
      118 RE    11f0        0.0000    0.0002    0.0000    0.0000    0.0001    0.0002    0.0000    0.0000    0.0002   -0.0000
      119 RE     4f1+       0.0000    0.0000    0.0000    0.0000   -0.0000    0.0000    0.0000    0.0015   -0.0000    0.0000
      120 RE     5f1+      -0.0000   -0.0000   -0.0000   -0.0000    0.0000   -0.0000   -0.0000   -0.0010   -0.0000   -0.0000
      121 RE     6f1+       0.0000    0.0000    0.0000    0.0000   -0.0000    0.0000    0.0000    0.0012   -0.0000    0.0000
      122 RE     7f1+      -0.0000   -0.0000   -0.0000   -0.0000    0.0000   -0.0000   -0.0000   -0.0010    0.0000   -0.0000
      123 RE     8f1+       0.0000    0.0000    0.0000    0.0000   -0.0000    0.0000    0.0000    0.0009   -0.0000    0.0000
      124 RE     9f1+      -0.0000   -0.0000   -0.0000   -0.0000   -0.0000   -0.0000   -0.0000   -0.0006    0.0000   -0.0000
      125 RE    10f1+       0.0000    0.0000    0.0000    0.0000    0.0000    0.0000    0.0000    0.0005   -0.0000    0.0000
      126 RE    11f1+      -0.0000   -0.0000   -0.0000   -0.0001   -0.0000    0.0000   -0.0000   -0.0001    0.0000   -0.0000
      127 RE     4f2+      -0.0000   -0.0000   -0.0000   -0.0000    0.0000   -0.0000   -0.0000   -0.0032    0.0000    0.0000
      128 RE     5f2+       0.0000    0.0000    0.0000    0.0000   -0.0000    0.0000    0.0000    0.0021   -0.0000   -0.0000
      129 RE     6f2+      -0.0000   -0.0000   -0.0000   -0.0000    0.0000   -0.0000   -0.0000   -0.0024    0.0000    0.0000
      130 RE     7f2+       0.0000    0.0000    0.0000    0.0000   -0.0000    0.0000    0.0000    0.0020   -0.0000   -0.0000
      131 RE     8f2+      -0.0000   -0.0000   -0.0000   -0.0000    0.0000   -0.0000   -0.0000   -0.0017    0.0000    0.0000
      132 RE     9f2+       0.0000    0.0000    0.0000    0.0000   -0.0000    0.0000    0.0000    0.0012   -0.0000   -0.0000
      133 RE    10f2+      -0.0000   -0.0000   -0.0000   -0.0000    0.0000   -0.0000   -0.0000   -0.0009    0.0000    0.0000
      134 RE    11f2+       0.0000    0.0000    0.0000    0.0000   -0.0000    0.0000   -0.0000   -0.0001   -0.0000   -0.0000
      135 RE     4f3+      -0.0000   -0.0001    0.0000    0.0000    0.0000   -0.0040    0.0000    0.0000    0.0031    0.0000
      136 RE     5f3+       0.0000    0.0001   -0.0000   -0.0000   -0.0000    0.0027   -0.0000   -0.0000   -0.0020   -0.0000
      137 RE     6f3+      -0.0000   -0.0001    0.0000    0.0000    0.0000   -0.0031    0.0000    0.0000    0.0022    0.0000
      138 RE     7f3+       0.0000    0.0001   -0.0000   -0.0000   -0.0000    0.0027   -0.0000   -0.0000   -0.0019   -0.0000
      139 RE     8f3+      -0.0000   -0.0001    0.0000    0.0000    0.0000   -0.0024    0.0000    0.0000    0.0016    0.0000
      140 RE     9f3+       0.0000    0.0001   -0.0000   -0.0000   -0.0000    0.0018   -0.0000   -0.0000   -0.0012   -0.0000
      141 RE    10f3+      -0.0000   -0.0001    0.0000    0.0000    0.0000   -0.0014    0.0000    0.0000    0.0009    0.0000
      142 RE    11f3+       0.0000    0.0001   -0.0000   -0.0000   -0.0000    0.0001    0.0000    0.0000    0.0001   -0.0000
      143 RE     5g4-       0.0000   -0.0000   -0.0000    0.0000   -0.0000    0.0000   -0.0005    0.0000    0.0000   -0.0000
      144 RE     6g4-      -0.0000    0.0000    0.0000   -0.0000    0.0000   -0.0000    0.0005   -0.0000   -0.0000    0.0000
      145 RE     7g4-       0.0000   -0.0000   -0.0000    0.0000   -0.0000    0.0000   -0.0005    0.0000    0.0000   -0.0000
      146 RE     8g4-      -0.0000    0.0000    0.0000   -0.0000    0.0000   -0.0000    0.0003   -0.0000   -0.0000    0.0000
      147 RE     5g3-       0.0000    0.0000   -0.0000    0.0000    0.0000    0.0000    0.0000   -0.0000    0.0000   -0.0000
      148 RE     6g3-      -0.0000   -0.0000    0.0000   -0.0000   -0.0000   -0.0000   -0.0000    0.0000    0.0000    0.0000
      149 RE     7g3-       0.0000    0.0000   -0.0000    0.0000    0.0000    0.0000    0.0000   -0.0000   -0.0000   -0.0000
      150 RE     8g3-      -0.0000   -0.0000    0.0000   -0.0000    0.0000   -0.0000   -0.0000    0.0000   -0.0000    0.0000
      151 RE     5g2-       0.0000   -0.0000   -0.0000    0.0000   -0.0000   -0.0000    0.0001   -0.0000    0.0000   -0.0001
      152 RE     6g2-      -0.0000    0.0000   -0.0000    0.0000    0.0000   -0.0000   -0.0001    0.0000    0.0000    0.0001
      153 RE     7g2-       0.0000   -0.0000    0.0000   -0.0000   -0.0000    0.0000    0.0001   -0.0000   -0.0000   -0.0001
      154 RE     8g2-      -0.0000    0.0000   -0.0000    0.0000    0.0000   -0.0000   -0.0001    0.0000    0.0000    0.0000
      155 RE     5g1-      -0.0000    0.0000   -0.0000    0.0000   -0.0000    0.0000   -0.0006    0.0000    0.0000    0.0003
      156 RE     6g1-       0.0000   -0.0000    0.0000   -0.0000    0.0000    0.0000    0.0005   -0.0000   -0.0000   -0.0002
      157 RE     7g1-      -0.0000    0.0000   -0.0000    0.0000   -0.0000   -0.0000   -0.0006    0.0000    0.0000    0.0002
      158 RE     8g1-       0.0000   -0.0000    0.0000   -0.0000    0.0000    0.0000    0.0004   -0.0000   -0.0000   -0.0002
      159 RE     5g0       -0.0000   -0.0000   -0.0000   -0.0000   -0.0000   -0.0001    0.0000    0.0000   -0.0011   -0.0000
      160 RE     6g0       -0.0000    0.0000    0.0000    0.0000    0.0000    0.0001   -0.0000   -0.0000    0.0010    0.0000
      161 RE     7g0       -0.0000   -0.0000   -0.0000   -0.0000   -0.0000   -0.0001    0.0000    0.0000   -0.0010   -0.0000
      162 RE     8g0        0.0000    0.0000    0.0000    0.0000    0.0000    0.0000   -0.0000   -0.0000    0.0007    0.0000
      163 RE     5g1+       0.0000   -0.0000    0.0000    0.0000    0.0000   -0.0000    0.0000    0.0006   -0.0000   -0.0000
      164 RE     6g1+      -0.0000    0.0000   -0.0000   -0.0000   -0.0000   -0.0000   -0.0000   -0.0005    0.0000    0.0000
      165 RE     7g1+       0.0000   -0.0000    0.0000    0.0000    0.0000    0.0000    0.0000    0.0006   -0.0000   -0.0000
      166 RE     8g1+      -0.0000    0.0000   -0.0000   -0.0000   -0.0000   -0.0000   -0.0000   -0.0004    0.0000    0.0000
      167 RE     5g2+       0.0000   -0.0000   -0.0000   -0.0000   -0.0000    0.0000    0.0000    0.0001    0.0000   -0.0000
      168 RE     6g2+      -0.0000    0.0000   -0.0000   -0.0000    0.0000   -0.0000   -0.0000   -0.0001    0.0000    0.0000
      169 RE     7g2+       0.0000   -0.0000    0.0000    0.0000   -0.0000    0.0000    0.0000    0.0001   -0.0000   -0.0000
      170 RE     8g2+      -0.0000    0.0000   -0.0000   -0.0000    0.0000   -0.0000   -0.0000   -0.0001    0.0000    0.0000
      171 RE     5g3+       0.0000    0.0000   -0.0000   -0.0000   -0.0000    0.0005    0.0000    0.0000   -0.0007   -0.0000
      172 RE     6g3+      -0.0000   -0.0000    0.0000    0.0000    0.0000   -0.0005   -0.0000   -0.0000    0.0006    0.0000
      173 RE     7g3+       0.0000    0.0000   -0.0000   -0.0000   -0.0000    0.0005   -0.0000   -0.0000   -0.0006   -0.0000
      174 RE     8g3+      -0.0000   -0.0000    0.0000    0.0000    0.0000   -0.0004    0.0000    0.0000    0.0005    0.0000
      175 RE     5g4+      -0.0000    0.0000    0.0000    0.0000    0.0000   -0.0000    0.0000    0.0005   -0.0000    0.0000
      176 RE     6g4+       0.0000   -0.0000   -0.0000   -0.0000   -0.0000    0.0000   -0.0000   -0.0005    0.0000   -0.0000
      177 RE     7g4+      -0.0000    0.0000    0.0000    0.0000    0.0000   -0.0000    0.0000    0.0005   -0.0000    0.0000
      178 RE     8g4+       0.0000   -0.0000   -0.0000   -0.0000   -0.0000    0.0000   -0.0000   -0.0003    0.0000   -0.0000
      179 RE     6h5-       0.0000    0.0000    0.0000   -0.0000   -0.0000   -0.0000    0.0000   -0.0000   -0.0000   -0.0000
      180 RE     7h5-      -0.0000   -0.0000   -0.0000    0.0000    0.0000    0.0000   -0.0000    0.0000    0.0000    0.0001
      181 RE     6h4-      -0.0000   -0.0000    0.0000   -0.0000   -0.0000    0.0000    0.0000   -0.0000   -0.0000    0.0000
      182 RE     7h4-       0.0000    0.0000   -0.0000    0.0000    0.0000   -0.0000   -0.0001    0.0000    0.0000   -0.0000
      183 RE     6h3-       0.0000    0.0000    0.0000   -0.0000   -0.0000    0.0000    0.0000   -0.0000    0.0000   -0.0000
      184 RE     7h3-      -0.0000   -0.0000   -0.0000    0.0000    0.0000   -0.0000   -0.0000    0.0000   -0.0000   -0.0000
      185 RE     6h2-       0.0000    0.0000    0.0000   -0.0000   -0.0000   -0.0000    0.0000   -0.0000   -0.0000   -0.0000
      186 RE     7h2-      -0.0000   -0.0000   -0.0000    0.0000    0.0000    0.0000   -0.0000    0.0000    0.0000    0.0000
      187 RE     6h1-      -0.0000   -0.0000    0.0000   -0.0000   -0.0000    0.0000    0.0000   -0.0000    0.0000    0.0000
      188 RE     7h1-       0.0000    0.0000   -0.0000    0.0000    0.0000   -0.0000   -0.0000    0.0000    0.0000   -0.0000
      189 RE     6h0        0.0000    0.0000   -0.0000   -0.0000   -0.0000   -0.0000   -0.0000   -0.0000   -0.0001    0.0000
      190 RE     7h0       -0.0000    0.0000    0.0000    0.0000    0.0000    0.0000    0.0000    0.0000    0.0001    0.0000
      191 RE     6h1+       0.0000    0.0000   -0.0000   -0.0000    0.0000   -0.0000   -0.0000   -0.0000   -0.0000   -0.0000
      192 RE     7h1+      -0.0000   -0.0000    0.0000    0.0000   -0.0000    0.0000    0.0000    0.0000   -0.0000    0.0000
      193 RE     6h2+       0.0000    0.0000    0.0000    0.0000   -0.0000   -0.0000    0.0000    0.0000   -0.0000   -0.0000
      194 RE     7h2+      -0.0000   -0.0000   -0.0000   -0.0000    0.0000    0.0000   -0.0000   -0.0000    0.0000    0.0000
      195 RE     6h3+       0.0000   -0.0000   -0.0000   -0.0000    0.0000   -0.0000   -0.0000   -0.0000    0.0000   -0.0000
      196 RE     7h3+      -0.0000    0.0000    0.0000    0.0000   -0.0000    0.0000    0.0000    0.0000   -0.0000   -0.0000
      197 RE     6h4+       0.0000    0.0000   -0.0000   -0.0000    0.0000   -0.0000   -0.0000   -0.0000    0.0000   -0.0000
      198 RE     7h4+      -0.0000   -0.0000    0.0000    0.0000   -0.0000    0.0000    0.0000    0.0001   -0.0000    0.0000
      199 RE     6h5+       0.0000    0.0000    0.0000    0.0000   -0.0000   -0.0000    0.0000    0.0000   -0.0000   -0.0000
      200 RE     7h5+      -0.0000   -0.0000   -0.0000   -0.0000    0.0000    0.0000   -0.0000   -0.0000    0.0000    0.0000

          Orbital           11        12        13        14        15        16        17        18        19        20    
          Energy          -69.6880  -68.9119  -68.8254  -68.8254  -23.5607  -17.9714  -17.9714  -17.7091  -10.5582  -10.5582
          Occ. No.          2.0000    2.0000    2.0000    2.0000    2.0000    2.0000    2.0000    2.0000    2.0000    2.0000

        1 RE     1s        -0.0000    0.0000    0.0000   -0.0000    0.0000    0.0000   -0.0000   -0.0000   -0.0000    0.0000
        2 RE     2s        -0.0000    0.0002    0.0000   -0.0000   -0.0001   -0.0000    0.0000    0.0001   -0.0000    0.0000
        3 RE     3s        -0.0000    0.0099   -0.0000    0.0000   -0.0026    0.0000   -0.0000    0.0000   -0.0000    0.0000
        4 RE     4s         0.0000   -0.0007    0.0000    0.0000    0.9978    0.0000   -0.0000   -0.0472    0.0000   -0.0000
        5 RE     5s        -0.0000    0.0003   -0.0000    0.0000    0.0240    0.0000   -0.0000   -0.0066    0.0000   -0.0000
        6 RE     6s         0.0000   -0.0001    0.0000   -0.0000   -0.0056   -0.0000    0.0000    0.0015   -0.0000   -0.0000
        7 RE     7s        -0.0000    0.0002   -0.0000    0.0000    0.0087    0.0000   -0.0000   -0.0022   -0.0000    0.0000
        8 RE     8s         0.0000   -0.0003    0.0000   -0.0000   -0.0153   -0.0000    0.0000    0.0036    0.0000   -0.0000
        9 RE     9s        -0.0000    0.0004   -0.0000    0.0000    0.0136    0.0000   -0.0000   -0.0028   -0.0000    0.0000
       10 RE    10s         0.0000   -0.0003    0.0000   -0.0000   -0.0063   -0.0000    0.0000    0.0012    0.0000   -0.0000
       11 RE    11s        -0.0000    0.0007   -0.0000    0.0000    0.0066    0.0000   -0.0000   -0.0009   -0.0000    0.0000
       12 RE     2px        0.0001   -0.0000   -0.0007    0.0000   -0.0000   -0.0001    0.0000   -0.0000    0.0000   -0.0000
       13 RE     3px        0.0005   -0.0000   -0.0520    0.0000    0.0000   -0.0035    0.0000   -0.0000    0.0000   -0.0002
       14 RE     4px        0.0004   -0.0000    0.0016   -0.0000   -0.0000    0.9973   -0.0000    0.0001   -0.0000    0.0017
       15 RE     5px       -0.0001    0.0000   -0.0008    0.0000    0.0000    0.0244   -0.0000    0.0000    0.0000   -0.0002
       16 RE     6px        0.0001    0.0000    0.0004   -0.0000   -0.0000   -0.0093    0.0000   -0.0000   -0.0000    0.0003
       17 RE     7px       -0.0002   -0.0000   -0.0012    0.0000    0.0000    0.0202   -0.0000    0.0000    0.0000   -0.0006
       18 RE     8px        0.0002    0.0000    0.0013   -0.0000   -0.0000   -0.0140    0.0000   -0.0000   -0.0000    0.0004
       19 RE     9px       -0.0002   -0.0000   -0.0013    0.0000    0.0000    0.0081   -0.0000    0.0000    0.0000   -0.0002
       20 RE    10px        0.0002    0.0000    0.0015   -0.0000    0.0000   -0.0054    0.0000   -0.0000   -0.0000    0.0001
       21 RE    11px       -0.0003   -0.0000   -0.0024    0.0000   -0.0000    0.0019   -0.0000    0.0000    0.0000   -0.0000
       22 RE     2py        0.0000    0.0000   -0.0000   -0.0007    0.0000   -0.0000   -0.0001    0.0000   -0.0000   -0.0000
       23 RE     3py        0.0000    0.0000   -0.0000   -0.0520   -0.0000   -0.0000   -0.0035    0.0000   -0.0002   -0.0000
       24 RE     4py        0.0000    0.0000    0.0000    0.0016    0.0000    0.0000    0.9973   -0.0000    0.0017    0.0000
       25 RE     5py       -0.0000   -0.0000   -0.0000   -0.0008   -0.0000    0.0000    0.0244   -0.0000   -0.0002   -0.0000
       26 RE     6py        0.0000   -0.0000    0.0000    0.0004    0.0000   -0.0000   -0.0093    0.0000    0.0003    0.0000
       27 RE     7py       -0.0000    0.0000   -0.0000   -0.0012   -0.0000    0.0000    0.0202   -0.0000   -0.0006   -0.0000
       28 RE     8py        0.0000   -0.0000    0.0000    0.0013    0.0000   -0.0000   -0.0140    0.0000    0.0004    0.0000
       29 RE     9py       -0.0000    0.0000   -0.0000   -0.0013   -0.0000    0.0000    0.0081   -0.0000   -0.0002   -0.0000
       30 RE    10py        0.0000   -0.0000    0.0000    0.0015   -0.0000   -0.0000   -0.0054    0.0000    0.0001    0.0000
       31 RE    11py       -0.0000    0.0000   -0.0000   -0.0024    0.0000    0.0000    0.0019   -0.0000   -0.0000   -0.0000
       32 RE     2pz        0.0000   -0.0000    0.0000   -0.0000    0.0000    0.0000   -0.0000   -0.0002   -0.0000    0.0000
       33 RE     3pz       -0.0000    0.0244   -0.0000    0.0000   -0.0006    0.0000   -0.0000   -0.0026    0.0000   -0.0000
       34 RE     4pz        0.0000   -0.0021    0.0000   -0.0000    0.0474   -0.0001    0.0000    0.9974    0.0000   -0.0000
       35 RE     5pz       -0.0000    0.0009   -0.0000    0.0000   -0.0026   -0.0000    0.0000    0.0299    0.0000   -0.0000
       36 RE     6pz        0.0000   -0.0004    0.0000   -0.0000    0.0010    0.0000   -0.0000   -0.0114   -0.0000    0.0000
       37 RE     7pz       -0.0000    0.0012   -0.0000    0.0000   -0.0023   -0.0000    0.0000    0.0248    0.0000   -0.0000
       38 RE     8pz        0.0000   -0.0013    0.0000   -0.0000    0.0016    0.0000   -0.0000   -0.0172   -0.0000    0.0000
       39 RE     9pz       -0.0000    0.0012   -0.0000    0.0000   -0.0009   -0.0000    0.0000    0.0100    0.0000   -0.0000
       40 RE    10pz        0.0000   -0.0014    0.0000   -0.0000    0.0005    0.0000   -0.0000   -0.0066   -0.0000    0.0000
       41 RE    11pz       -0.0000    0.0020   -0.0000    0.0000    0.0001   -0.0000    0.0000    0.0020    0.0000   -0.0000
       42 RE     3d2-       0.0000   -0.0000    0.0000    0.5318    0.0000   -0.0000   -0.0011    0.0000   -0.0037   -0.0000
       43 RE     4d2-       0.0000   -0.0000   -0.0000   -0.0001    0.0000    0.0000    0.0301   -0.0000    0.8576    0.0000
       44 RE     5d2-      -0.0000    0.0000    0.0000    0.0002    0.0000   -0.0000   -0.0027   -0.0000    0.0222    0.0000
       45 RE     6d2-       0.0000   -0.0000   -0.0000   -0.0003   -0.0000    0.0000    0.0031   -0.0000   -0.0227   -0.0000
       46 RE     7d2-      -0.0000    0.0000    0.0000    0.0005    0.0000   -0.0000   -0.0035    0.0000    0.0217    0.0000
       47 RE     8d2-       0.0000   -0.0000   -0.0000   -0.0009   -0.0000    0.0000    0.0028   -0.0000   -0.0150   -0.0000
       48 RE     9d2-      -0.0000    0.0000    0.0000    0.0010    0.0000   -0.0000   -0.0015    0.0000    0.0076    0.0000
       49 RE    10d2-       0.0000    0.0000   -0.0000   -0.0018    0.0000    0.0000    0.0009   -0.0000   -0.0054   -0.0000
       50 RE    11d2-       0.0000   -0.0000    0.0000    0.0022   -0.0000    0.0000    0.0005   -0.0000    0.0015    0.0000
       51 RE     3d1-      -0.0000   -0.0000    0.0000    0.8451   -0.0000   -0.0000   -0.0011    0.0000    0.0024    0.0000
       52 RE     4d1-      -0.0000    0.0000    0.0000    0.0006    0.0000    0.0000    0.0534   -0.0000   -0.5110   -0.0000
       53 RE     5d1-       0.0000   -0.0000    0.0000    0.0001    0.0000   -0.0000   -0.0044    0.0000   -0.0132   -0.0000
       54 RE     6d1-      -0.0000    0.0000   -0.0000   -0.0003   -0.0000    0.0000    0.0049   -0.0000    0.0135    0.0000
       55 RE     7d1-       0.0000   -0.0000    0.0000    0.0005    0.0000   -0.0000   -0.0053    0.0000   -0.0128   -0.0000
       56 RE     8d1-      -0.0000    0.0000   -0.0000   -0.0010   -0.0000    0.0000    0.0041   -0.0000    0.0088    0.0000
       57 RE     9d1-       0.0000   -0.0000    0.0000    0.0013    0.0000   -0.0000   -0.0020    0.0000   -0.0044   -0.0000
       58 RE    10d1-      -0.0000    0.0000   -0.0000   -0.0023   -0.0000    0.0000    0.0011   -0.0000    0.0031    0.0000
       59 RE    11d1-      -0.0000   -0.0000    0.0000    0.0031    0.0000    0.0000    0.0008   -0.0000   -0.0009   -0.0000
       60 RE     3d0       -0.0000    0.9996   -0.0000    0.0000    0.0008    0.0000   -0.0000    0.0020    0.0000   -0.0000
       61 RE     4d0        0.0000    0.0010   -0.0000    0.0000   -0.0126    0.0000   -0.0000   -0.0229    0.0000   -0.0000
       62 RE     5d0       -0.0000    0.0000    0.0000   -0.0000    0.0015   -0.0000    0.0000    0.0026   -0.0000    0.0000
       63 RE     6d0        0.0000   -0.0001   -0.0000    0.0000   -0.0018    0.0000   -0.0000   -0.0029    0.0000   -0.0000
       64 RE     7d0       -0.0000    0.0003    0.0000   -0.0000    0.0021   -0.0000    0.0000    0.0033   -0.0000    0.0000
       65 RE     8d0        0.0000   -0.0009   -0.0000    0.0000   -0.0020    0.0000   -0.0000   -0.0028    0.0000   -0.0000
       66 RE     9d0       -0.0000    0.0012    0.0000   -0.0000    0.0012   -0.0000    0.0000    0.0017    0.0000   -0.0000
       67 RE    10d0        0.0000   -0.0022    0.0000   -0.0000   -0.0009    0.0000   -0.0000   -0.0013   -0.0000    0.0000
       68 RE    11d0       -0.0000    0.0032   -0.0000    0.0000   -0.0003    0.0000   -0.0000   -0.0003   -0.0000    0.0000
       69 RE     3d1+      -0.5327    0.0000    0.8451   -0.0000    0.0000   -0.0011    0.0000   -0.0000   -0.0000    0.0024
       70 RE     4d1+      -0.0026   -0.0000    0.0006   -0.0000   -0.0000    0.0534   -0.0000    0.0000    0.0000   -0.5110
       71 RE     5d1+       0.0004    0.0000    0.0001   -0.0000   -0.0000   -0.0044    0.0000   -0.0000    0.0000   -0.0132
       72 RE     6d1+      -0.0006   -0.0000   -0.0003    0.0000    0.0000    0.0049   -0.0000    0.0000   -0.0000    0.0135
       73 RE     7d1+       0.0007    0.0000    0.0005   -0.0000   -0.0000   -0.0053    0.0000   -0.0000    0.0000   -0.0128
       74 RE     8d1+      -0.0007   -0.0000   -0.0010    0.0000    0.0000    0.0041   -0.0000    0.0000   -0.0000    0.0088
       75 RE     9d1+       0.0005    0.0000    0.0013   -0.0000   -0.0000   -0.0020    0.0000   -0.0000    0.0000   -0.0044
       76 RE    10d1+      -0.0003   -0.0000   -0.0023    0.0000    0.0000    0.0011   -0.0000    0.0000   -0.0000    0.0031
       77 RE    11d1+      -0.0002    0.0000    0.0031   -0.0000   -0.0000    0.0008   -0.0000    0.0000    0.0000   -0.0009
       78 RE     3d2+      -0.8463   -0.0000   -0.5318    0.0000    0.0000    0.0011   -0.0000    0.0000   -0.0000    0.0037
       79 RE     4d2+      -0.0035   -0.0000    0.0001   -0.0000    0.0000   -0.0301    0.0000   -0.0000    0.0000   -0.8576
       80 RE     5d2+       0.0005    0.0000   -0.0002    0.0000    0.0000    0.0027   -0.0000   -0.0000    0.0000   -0.0222
       81 RE     6d2+      -0.0007   -0.0000    0.0003   -0.0000   -0.0000   -0.0031    0.0000   -0.0000   -0.0000    0.0227
       82 RE     7d2+       0.0008    0.0000   -0.0005    0.0000    0.0000    0.0035   -0.0000    0.0000    0.0000   -0.0217
       83 RE     8d2+      -0.0008   -0.0000    0.0009   -0.0000   -0.0000   -0.0028    0.0000   -0.0000   -0.0000    0.0150
       84 RE     9d2+       0.0004   -0.0000   -0.0010    0.0000    0.0000    0.0015   -0.0000    0.0000    0.0000   -0.0076
       85 RE    10d2+      -0.0001    0.0000    0.0018   -0.0000    0.0000   -0.0009    0.0000   -0.0000   -0.0000    0.0054
       86 RE    11d2+      -0.0008   -0.0000   -0.0022    0.0000   -0.0000   -0.0005    0.0000   -0.0000    0.0000   -0.0015
       87 RE     4f3-      -0.0000    0.0000   -0.0000   -0.0000   -0.0000    0.0000    0.0000   -0.0000   -0.0000   -0.0000
       88 RE     5f3-       0.0000   -0.0000   -0.0000   -0.0000    0.0000    0.0000    0.0000    0.0000   -0.0000   -0.0000
       89 RE     6f3-      -0.0000    0.0000    0.0000   -0.0000   -0.0000   -0.0000   -0.0000   -0.0000   -0.0000   -0.0000
       90 RE     7f3-       0.0000   -0.0000    0.0000    0.0000    0.0000    0.0000    0.0000    0.0000    0.0000    0.0000
       91 RE     8f3-      -0.0000   -0.0000   -0.0000   -0.0000   -0.0000    0.0000    0.0000   -0.0000    0.0000    0.0000
       92 RE     9f3-       0.0000   -0.0000    0.0000    0.0000    0.0000   -0.0000   -0.0000    0.0000   -0.0000   -0.0000
       93 RE    10f3-      -0.0000    0.0000   -0.0000   -0.0000   -0.0000    0.0000    0.0000   -0.0000    0.0000    0.0000
       94 RE    11f3-       0.0000   -0.0000    0.0000    0.0000    0.0000    0.0000    0.0000    0.0000    0.0000    0.0000
       95 RE     4f2-       0.0000   -0.0000    0.0000    0.0082    0.0000   -0.0000   -0.0089    0.0000    0.0263    0.0000
       96 RE     5f2-      -0.0000    0.0000   -0.0000   -0.0053   -0.0000    0.0000    0.0034    0.0000   -0.0065   -0.0000
       97 RE     6f2-       0.0000   -0.0000    0.0000    0.0058    0.0000   -0.0000   -0.0026    0.0000    0.0035    0.0000
       98 RE     7f2-      -0.0000    0.0000   -0.0000   -0.0048   -0.0000    0.0000    0.0010   -0.0000   -0.0002   -0.0000
       99 RE     8f2-       0.0000   -0.0000    0.0000    0.0041   -0.0000   -0.0000   -0.0000    0.0000   -0.0009   -0.0000
      100 RE     9f2-      -0.0000    0.0000   -0.0000   -0.0029    0.0000   -0.0000   -0.0005   -0.0000    0.0010    0.0000
      101 RE    10f2-       0.0000   -0.0000    0.0000    0.0022    0.0000    0.0000    0.0007   -0.0000   -0.0010   -0.0000
      102 RE    11f2-      -0.0000    0.0000   -0.0000   -0.0003   -0.0000   -0.0000   -0.0009    0.0000    0.0010    0.0000
      103 RE     4f1-      -0.0000    0.0000    0.0000    0.0016    0.0000   -0.0000   -0.0043    0.0000   -0.0108   -0.0000
      104 RE     5f1-       0.0000   -0.0000   -0.0000   -0.0010    0.0000    0.0000    0.0017    0.0000    0.0022    0.0000
      105 RE     6f1-      -0.0000    0.0000    0.0000    0.0011   -0.0000   -0.0000   -0.0012   -0.0000   -0.0011   -0.0000
      106 RE     7f1-       0.0000    0.0000   -0.0000   -0.0009    0.0000    0.0000    0.0003    0.0000   -0.0001   -0.0000
      107 RE     8f1-      -0.0000   -0.0000    0.0000    0.0008   -0.0000    0.0000    0.0002    0.0000    0.0005    0.0000
      108 RE     9f1-       0.0000    0.0000   -0.0000   -0.0006   -0.0000   -0.0000   -0.0004   -0.0000   -0.0005   -0.0000
      109 RE    10f1-      -0.0000   -0.0000    0.0000    0.0005    0.0000    0.0000    0.0005    0.0000    0.0004    0.0000
      110 RE    11f1-       0.0000    0.0000   -0.0000   -0.0003   -0.0000   -0.0000   -0.0005    0.0000   -0.0004   -0.0000
      111 RE     4f0       -0.0000   -0.0035    0.0000   -0.0000   -0.0196    0.0000   -0.0000   -0.0066   -0.0000    0.0000
      112 RE     5f0        0.0000    0.0023   -0.0000    0.0000    0.0081   -0.0000    0.0000    0.0021    0.0000   -0.0000
      113 RE     6f0       -0.0000   -0.0024    0.0000   -0.0000   -0.0061    0.0000   -0.0000   -0.0013   -0.0000    0.0000
      114 RE     7f0        0.0000    0.0020   -0.0000    0.0000    0.0021   -0.0000    0.0000    0.0003   -0.0000    0.0000
      115 RE     8f0       -0.0000   -0.0016    0.0000   -0.0000    0.0003   -0.0000    0.0000    0.0001    0.0000   -0.0000
      116 RE     9f0        0.0000    0.0011   -0.0000    0.0000   -0.0015    0.0000   -0.0000   -0.0004   -0.0000    0.0000
      117 RE    10f0       -0.0000   -0.0007    0.0000   -0.0000    0.0021   -0.0000    0.0000    0.0006   -0.0000    0.0000
      118 RE    11f0        0.0000   -0.0005   -0.0000    0.0000   -0.0025    0.0000   -0.0000   -0.0007    0.0000   -0.0000
      119 RE     4f1+      -0.0015   -0.0000    0.0016   -0.0000   -0.0000   -0.0043    0.0000   -0.0000    0.0000   -0.0108
      120 RE     5f1+       0.0009    0.0000   -0.0010    0.0000   -0.0000    0.0017   -0.0000   -0.0000   -0.0000    0.0022
      121 RE     6f1+      -0.0011   -0.0000    0.0011   -0.0000    0.0000   -0.0012    0.0000    0.0000    0.0000   -0.0011
      122 RE     7f1+       0.0009   -0.0000   -0.0009    0.0000   -0.0000    0.0003   -0.0000   -0.0000    0.0000   -0.0001
      123 RE     8f1+      -0.0008    0.0000    0.0008   -0.0000    0.0000    0.0002   -0.0000   -0.0000   -0.0000    0.0005
      124 RE     9f1+       0.0006   -0.0000   -0.0006    0.0000    0.0000   -0.0004    0.0000    0.0000    0.0000   -0.0005
      125 RE    10f1+      -0.0005    0.0000    0.0005   -0.0000   -0.0000    0.0005   -0.0000   -0.0000   -0.0000    0.0004
      126 RE    11f1+       0.0003   -0.0000   -0.0003    0.0000    0.0000   -0.0005    0.0000   -0.0000    0.0000   -0.0004
      127 RE     4f2+      -0.0038   -0.0000   -0.0082    0.0000    0.0000    0.0089   -0.0000    0.0000    0.0000   -0.0263
      128 RE     5f2+       0.0024    0.0000    0.0053   -0.0000   -0.0000   -0.0034    0.0000    0.0000   -0.0000    0.0065
      129 RE     6f2+      -0.0027   -0.0000   -0.0058    0.0000    0.0000    0.0026   -0.0000    0.0000    0.0000   -0.0035
      130 RE     7f2+       0.0023    0.0000    0.0048   -0.0000   -0.0000   -0.0010    0.0000   -0.0000   -0.0000    0.0002
      131 RE     8f2+      -0.0020   -0.0000   -0.0041    0.0000   -0.0000    0.0000   -0.0000    0.0000   -0.0000    0.0009
      132 RE     9f2+       0.0014    0.0000    0.0029   -0.0000    0.0000    0.0005   -0.0000   -0.0000    0.0000   -0.0010
      133 RE    10f2+      -0.0012   -0.0000   -0.0022    0.0000    0.0000   -0.0007    0.0000   -0.0000   -0.0000    0.0010
      134 RE    11f2+       0.0005    0.0000    0.0003   -0.0000   -0.0000    0.0009   -0.0000    0.0000    0.0000   -0.0010
      135 RE     4f3+      -0.0000    0.0030   -0.0000    0.0000   -0.0129   -0.0000    0.0000    0.0095   -0.0000    0.0000
      136 RE     5f3+       0.0000   -0.0019   -0.0000    0.0000    0.0054    0.0000   -0.0000   -0.0037    0.0000   -0.0000
      137 RE     6f3+      -0.0000    0.0021   -0.0000    0.0000   -0.0041   -0.0000    0.0000    0.0027   -0.0000    0.0000
      138 RE     7f3+       0.0000   -0.0018    0.0000   -0.0000    0.0014    0.0000   -0.0000   -0.0010   -0.0000    0.0000
      139 RE     8f3+      -0.0000    0.0015   -0.0000    0.0000    0.0002    0.0000   -0.0000    0.0000    0.0000   -0.0000
      140 RE     9f3+       0.0000   -0.0011    0.0000   -0.0000   -0.0010   -0.0000    0.0000    0.0005   -0.0000    0.0000
      141 RE    10f3+      -0.0000    0.0008   -0.0000    0.0000    0.0014    0.0000   -0.0000   -0.0007    0.0000   -0.0000
      142 RE    11f3+       0.0000   -0.0002    0.0000   -0.0000   -0.0016   -0.0000    0.0000    0.0009    0.0000   -0.0000
      143 RE     5g4-      -0.0000   -0.0000    0.0000    0.0005   -0.0000   -0.0000   -0.0026    0.0000   -0.0001   -0.0000
      144 RE     6g4-       0.0000    0.0000   -0.0000   -0.0004   -0.0000    0.0000    0.0019   -0.0000    0.0002    0.0000
      145 RE     7g4-      -0.0000   -0.0000    0.0000    0.0004    0.0000   -0.0000   -0.0016    0.0000   -0.0002   -0.0000
      146 RE     8g4-       0.0000    0.0000   -0.0000   -0.0003   -0.0000    0.0000    0.0010   -0.0000    0.0001    0.0000
      147 RE     5g3-      -0.0000    0.0000    0.0000    0.0000    0.0000   -0.0000   -0.0000   -0.0000   -0.0000   -0.0000
      148 RE     6g3-       0.0000   -0.0000   -0.0000   -0.0000   -0.0000   -0.0000   -0.0000   -0.0000   -0.0000   -0.0000
      149 RE     7g3-      -0.0000    0.0000    0.0000    0.0000    0.0000    0.0000    0.0000    0.0000    0.0000    0.0000
      150 RE     8g3-       0.0000   -0.0000    0.0000   -0.0000   -0.0000   -0.0000   -0.0000   -0.0000   -0.0000   -0.0000
      151 RE     5g2-      -0.0000   -0.0000   -0.0000   -0.0004   -0.0000    0.0000    0.0000    0.0000   -0.0008   -0.0000
      152 RE     6g2-       0.0000    0.0000    0.0000    0.0004    0.0000   -0.0000   -0.0002    0.0000    0.0003    0.0000
      153 RE     7g2-      -0.0000   -0.0000   -0.0000   -0.0004    0.0000    0.0000    0.0002   -0.0000   -0.0002   -0.0000
      154 RE     8g2-       0.0000    0.0000    0.0000    0.0003   -0.0000   -0.0000   -0.0001    0.0000    0.0001    0.0000
      155 RE     5g1-       0.0000   -0.0000    0.0000    0.0004    0.0000   -0.0000   -0.0032    0.0000    0.0013    0.0000
      156 RE     6g1-      -0.0000    0.0000   -0.0000   -0.0003   -0.0000    0.0000    0.0022   -0.0000   -0.0009   -0.0000
      157 RE     7g1-       0.0000   -0.0000    0.0000    0.0003   -0.0000   -0.0000   -0.0019    0.0000    0.0008    0.0000
      158 RE     8g1-      -0.0000    0.0000   -0.0000   -0.0002    0.0000    0.0000    0.0011   -0.0000   -0.0005   -0.0000
      159 RE     5g0        0.0000   -0.0011    0.0000   -0.0000   -0.0003    0.0000   -0.0000   -0.0052    0.0000   -0.0000
      160 RE     6g0       -0.0000    0.0009   -0.0000    0.0000    0.0002    0.0000   -0.0000    0.0041    0.0000   -0.0000
      161 RE     7g0        0.0000   -0.0008    0.0000   -0.0000   -0.0001   -0.0000    0.0000   -0.0033   -0.0000    0.0000
      162 RE     8g0       -0.0000    0.0006   -0.0000    0.0000    0.0001   -0.0000    0.0000    0.0019    0.0000   -0.0000
      163 RE     5g1+       0.0003    0.0000    0.0004   -0.0000   -0.0000   -0.0032    0.0000   -0.0000   -0.0000    0.0013
      164 RE     6g1+      -0.0002   -0.0000   -0.0003    0.0000    0.0000    0.0022   -0.0000    0.0000    0.0000   -0.0009
      165 RE     7g1+       0.0002    0.0000    0.0003   -0.0000    0.0000   -0.0019    0.0000   -0.0000   -0.0000    0.0008
      166 RE     8g1+      -0.0002   -0.0000   -0.0002    0.0000   -0.0000    0.0011   -0.0000    0.0000    0.0000   -0.0005
      167 RE     5g2+       0.0001   -0.0000    0.0004   -0.0000   -0.0000   -0.0000    0.0000    0.0000   -0.0000    0.0008
      168 RE     6g2+      -0.0001    0.0000   -0.0004    0.0000    0.0000    0.0002   -0.0000    0.0000    0.0000   -0.0003
      169 RE     7g2+       0.0001   -0.0000    0.0004   -0.0000    0.0000   -0.0002    0.0000   -0.0000   -0.0000    0.0002
      170 RE     8g2+      -0.0000    0.0000   -0.0003    0.0000   -0.0000    0.0001   -0.0000    0.0000    0.0000   -0.0001
      171 RE     5g3+       0.0000   -0.0003    0.0000   -0.0000    0.0021    0.0000   -0.0000   -0.0029   -0.0000    0.0000
      172 RE     6g3+      -0.0000    0.0002   -0.0000    0.0000   -0.0017    0.0000   -0.0000    0.0023    0.0000   -0.0000
      173 RE     7g3+       0.0000   -0.0002    0.0000   -0.0000    0.0015    0.0000   -0.0000   -0.0020   -0.0000    0.0000
      174 RE     8g3+      -0.0000    0.0001   -0.0000    0.0000   -0.0010   -0.0000    0.0000    0.0012    0.0000   -0.0000
      175 RE     5g4+      -0.0000    0.0000    0.0005   -0.0000   -0.0000   -0.0026    0.0000   -0.0000    0.0000   -0.0001
      176 RE     6g4+       0.0000   -0.0000   -0.0004    0.0000    0.0000    0.0019   -0.0000    0.0000   -0.0000    0.0002
      177 RE     7g4+      -0.0000    0.0000    0.0004   -0.0000   -0.0000   -0.0016    0.0000   -0.0000    0.0000   -0.0002
      178 RE     8g4+       0.0000   -0.0000   -0.0003    0.0000    0.0000    0.0010   -0.0000    0.0000   -0.0000    0.0001
      179 RE     6h5-      -0.0000    0.0000   -0.0000   -0.0000    0.0000    0.0000    0.0001   -0.0000   -0.0006   -0.0000
      180 RE     7h5-       0.0000   -0.0000    0.0000    0.0001    0.0000   -0.0000   -0.0001    0.0000    0.0007    0.0000
      181 RE     6h4-       0.0000    0.0000   -0.0000   -0.0001   -0.0000    0.0000    0.0003   -0.0000    0.0002    0.0000
      182 RE     7h4-      -0.0000   -0.0000    0.0000    0.0001   -0.0000   -0.0000   -0.0003    0.0000   -0.0003   -0.0000
      183 RE     6h3-      -0.0000    0.0000   -0.0000   -0.0000    0.0000   -0.0000   -0.0000    0.0000   -0.0000   -0.0000
      184 RE     7h3-      -0.0000   -0.0000   -0.0000   -0.0000   -0.0000    0.0000    0.0000   -0.0000   -0.0000   -0.0000
      185 RE     6h2-      -0.0000    0.0000   -0.0000   -0.0000    0.0000    0.0000    0.0002   -0.0000   -0.0006   -0.0000
      186 RE     7h2-       0.0000   -0.0000    0.0000    0.0000    0.0000   -0.0000   -0.0002    0.0000    0.0006    0.0000
      187 RE     6h1-       0.0000    0.0000   -0.0000   -0.0001   -0.0000    0.0000    0.0004    0.0000    0.0006    0.0000
      188 RE     7h1-      -0.0000   -0.0000    0.0000    0.0001   -0.0000   -0.0000   -0.0003   -0.0000   -0.0006   -0.0000
      189 RE     6h0       -0.0000   -0.0001   -0.0000    0.0000   -0.0001    0.0000   -0.0000   -0.0007   -0.0000    0.0000
      190 RE     7h0       -0.0000    0.0001   -0.0000    0.0000    0.0002   -0.0000    0.0000    0.0005    0.0000   -0.0000
      191 RE     6h1+       0.0000   -0.0000   -0.0001    0.0000    0.0000    0.0004   -0.0000   -0.0000   -0.0000    0.0006
      192 RE     7h1+      -0.0000    0.0000    0.0001   -0.0000    0.0000   -0.0003    0.0000    0.0000    0.0000   -0.0006
      193 RE     6h2+       0.0000    0.0000    0.0000   -0.0000    0.0000   -0.0002    0.0000   -0.0000   -0.0000    0.0006
      194 RE     7h2+      -0.0000   -0.0000   -0.0000    0.0000    0.0000    0.0002   -0.0000    0.0000    0.0000   -0.0006
      195 RE     6h3+       0.0000   -0.0000    0.0000   -0.0000   -0.0001   -0.0000    0.0000    0.0000   -0.0000    0.0000
      196 RE     7h3+       0.0000    0.0000    0.0000   -0.0000    0.0002    0.0000   -0.0000   -0.0002   -0.0000    0.0000
      197 RE     6h4+       0.0000   -0.0000   -0.0001    0.0000    0.0000    0.0003   -0.0000    0.0000   -0.0000    0.0002
      198 RE     7h4+      -0.0000    0.0000    0.0001   -0.0000    0.0000   -0.0003    0.0000   -0.0000    0.0000   -0.0003
      199 RE     6h5+       0.0000    0.0000    0.0000   -0.0000    0.0000   -0.0001    0.0000   -0.0000   -0.0000    0.0006
      200 RE     7h5+      -0.0001   -0.0000   -0.0001    0.0000    0.0000    0.0001   -0.0000    0.0000    0.0000   -0.0007

          Orbital           21        22        23        24        25        26        27        28        29        30    
          Energy          -10.1921  -10.1910  -10.1909   -4.3596   -2.8492   -2.8492   -2.8318   -2.1454   -2.0981   -2.0182
          Occ. No.          2.0000    2.0000    2.0000    2.0000    2.0000    2.0000    2.0000    2.0000    2.0000    2.0000

        1 RE     1s        -0.0000    0.0000   -0.0000   -0.0000   -0.0000    0.0000    0.0000   -0.0000    0.0000    0.0000
        2 RE     2s        -0.0001    0.0000   -0.0000    0.0001    0.0000   -0.0000   -0.0000    0.0000    0.0000   -0.0000
        3 RE     3s         0.0006   -0.0000    0.0000    0.0008    0.0000   -0.0000    0.0000    0.0000    0.0010    0.0000
        4 RE     4s         0.0108   -0.0001    0.0000   -0.0215    0.0000   -0.0000    0.0040    0.0000    0.0037    0.0000
        5 RE     5s         0.0088   -0.0001    0.0000    0.9959    0.0000   -0.0000   -0.0318   -0.0000   -0.0128   -0.0000
        6 RE     6s        -0.0015    0.0000   -0.0000    0.0325    0.0000   -0.0000   -0.0104   -0.0000   -0.0143   -0.0000
        7 RE     7s         0.0022   -0.0000    0.0000   -0.0322   -0.0000    0.0000    0.0101    0.0000    0.0114    0.0000
        8 RE     8s        -0.0034    0.0000   -0.0000    0.0364    0.0000   -0.0000   -0.0083   -0.0000   -0.0075   -0.0000
        9 RE     9s         0.0025   -0.0000    0.0000   -0.0111    0.0000   -0.0000    0.0009    0.0000    0.0008    0.0000
       10 RE    10s        -0.0010    0.0000   -0.0000    0.0017    0.0000   -0.0000   -0.0003    0.0000   -0.0007   -0.0000
       11 RE    11s         0.0008   -0.0000    0.0000   -0.0044    0.0000   -0.0000    0.0005    0.0000    0.0009    0.0000
       12 RE     2px        0.0000    0.0002   -0.0000    0.0000    0.0000   -0.0000    0.0000   -0.0000    0.0000   -0.0000
       13 RE     3px       -0.0000   -0.0024    0.0000   -0.0000    0.0008   -0.0000    0.0000   -0.0000    0.0000   -0.0000
       14 RE     4px       -0.0008   -0.0587    0.0000   -0.0000   -0.0229    0.0000   -0.0000   -0.0000   -0.0000   -0.0000
       15 RE     5px       -0.0003   -0.0224    0.0000   -0.0000    0.9954   -0.0000    0.0001   -0.0000   -0.0000   -0.0000
       16 RE     6px        0.0001    0.0073   -0.0000    0.0000    0.0310   -0.0000    0.0000   -0.0000   -0.0000    0.0000
       17 RE     7px       -0.0002   -0.0136    0.0000   -0.0000   -0.0476    0.0000   -0.0000    0.0000    0.0000   -0.0000
       18 RE     8px        0.0001    0.0076   -0.0000    0.0000    0.0100   -0.0000    0.0000    0.0000    0.0000   -0.0000
       19 RE     9px       -0.0000   -0.0036    0.0000   -0.0000    0.0011   -0.0000    0.0000   -0.0000   -0.0000    0.0000
       20 RE    10px        0.0000    0.0022   -0.0000    0.0000    0.0021   -0.0000    0.0000   -0.0000   -0.0000    0.0000
       21 RE    11px       -0.0000   -0.0006    0.0000    0.0000   -0.0010    0.0000   -0.0000   -0.0000   -0.0000    0.0000
       22 RE     2py       -0.0000    0.0000    0.0002   -0.0000    0.0000    0.0000   -0.0000   -0.0000   -0.0000    0.0000
       23 RE     3py        0.0000   -0.0000   -0.0024    0.0000    0.0000    0.0008   -0.0000   -0.0000   -0.0000    0.0003
       24 RE     4py        0.0000   -0.0000   -0.0588    0.0000   -0.0000   -0.0229    0.0000   -0.0000    0.0000    0.0007
       25 RE     5py        0.0000   -0.0000   -0.0224   -0.0000    0.0000    0.9954   -0.0000   -0.0000    0.0000    0.0037
       26 RE     6py       -0.0000    0.0000    0.0073   -0.0000    0.0000    0.0311   -0.0000   -0.0000    0.0000   -0.0059
       27 RE     7py        0.0000   -0.0000   -0.0136    0.0000   -0.0000   -0.0476    0.0000    0.0000   -0.0000    0.0031
       28 RE     8py       -0.0000    0.0000    0.0076   -0.0000    0.0000    0.0100   -0.0000    0.0000   -0.0000    0.0008
       29 RE     9py        0.0000   -0.0000   -0.0036    0.0000    0.0000    0.0011   -0.0000   -0.0000    0.0000   -0.0000
       30 RE    10py       -0.0000    0.0000    0.0022   -0.0000    0.0000    0.0021   -0.0000   -0.0000    0.0000   -0.0001
       31 RE    11py        0.0000   -0.0000   -0.0006   -0.0000   -0.0000   -0.0010    0.0000   -0.0000    0.0000   -0.0001
       32 RE     2pz        0.0000   -0.0000    0.0000   -0.0000   -0.0000    0.0000    0.0001   -0.0000   -0.0000    0.0000
       33 RE     3pz        0.0019   -0.0000    0.0000    0.0002   -0.0000    0.0000    0.0006   -0.0000   -0.0031   -0.0000
       34 RE     4pz        0.0220   -0.0003    0.0000    0.0038    0.0000   -0.0000   -0.0269   -0.0000   -0.0120   -0.0000
       35 RE     5pz        0.0132   -0.0002    0.0000    0.0341   -0.0001    0.0000    0.9927    0.0000    0.0844    0.0000
       36 RE     6pz       -0.0038    0.0001   -0.0000   -0.0055   -0.0000    0.0000    0.0341    0.0000    0.0232   -0.0000
       37 RE     7pz        0.0073   -0.0001    0.0000    0.0072    0.0000   -0.0000   -0.0532   -0.0000   -0.0234    0.0000
       38 RE     8pz       -0.0043    0.0001   -0.0000   -0.0018   -0.0000    0.0000    0.0119    0.0000    0.0033    0.0000
       39 RE     9pz        0.0022   -0.0000    0.0000    0.0003    0.0000   -0.0000    0.0006    0.0000   -0.0013   -0.0000
       40 RE    10pz       -0.0015    0.0000   -0.0000   -0.0002   -0.0000    0.0000    0.0029    0.0000    0.0022   -0.0000
       41 RE    11pz        0.0005   -0.0000    0.0000    0.0000    0.0000   -0.0000   -0.0011    0.0000   -0.0011   -0.0000
       42 RE     3d2-       0.0000   -0.0000   -0.0005    0.0000    0.0000    0.0001   -0.0000    0.0000    0.0000    0.0025
       43 RE     4d2-      -0.0000    0.0000    0.5078   -0.0000    0.0000    0.0067   -0.0000    0.0000    0.0000    0.0164
       44 RE     5d2-      -0.0000    0.0000    0.0180    0.0000    0.0000    0.0140    0.0000   -0.0000    0.0000    0.0439
       45 RE     6d2-       0.0000   -0.0000   -0.0186   -0.0000   -0.0000   -0.0079    0.0000    0.0000   -0.0000   -0.0207
       46 RE     7d2-      -0.0000    0.0000    0.0180    0.0000    0.0000    0.0039   -0.0000    0.0000    0.0000    0.0074
       47 RE     8d2-       0.0000   -0.0000   -0.0126    0.0000   -0.0000   -0.0016    0.0000   -0.0000    0.0000   -0.0027
       48 RE     9d2-      -0.0000    0.0000    0.0064   -0.0000    0.0000    0.0008   -0.0000    0.0000    0.0000    0.0021
       49 RE    10d2-       0.0000   -0.0000   -0.0047   -0.0000   -0.0000   -0.0006    0.0000   -0.0000    0.0000   -0.0013
       50 RE    11d2-      -0.0000    0.0000    0.0009   -0.0000   -0.0000   -0.0001   -0.0000    0.0000   -0.0000    0.0005
       51 RE     3d1-       0.0000   -0.0000   -0.0012    0.0000    0.0000    0.0003   -0.0000    0.0000    0.0000   -0.0003
       52 RE     4d1-      -0.0000    0.0000    0.8547   -0.0000    0.0000    0.0135   -0.0000    0.0000   -0.0000   -0.0041
       53 RE     5d1-      -0.0000    0.0000    0.0300   -0.0000    0.0000    0.0232    0.0000   -0.0000   -0.0000   -0.0107
       54 RE     6d1-       0.0000   -0.0000   -0.0310   -0.0000   -0.0000   -0.0159    0.0000    0.0000    0.0000    0.0026
       55 RE     7d1-      -0.0000    0.0000    0.0299    0.0000    0.0000    0.0089   -0.0000    0.0000   -0.0000    0.0010
       56 RE     8d1-       0.0000   -0.0000   -0.0208    0.0000   -0.0000   -0.0029    0.0000   -0.0000   -0.0000   -0.0008
       57 RE     9d1-      -0.0000    0.0000    0.0105   -0.0000    0.0000    0.0011   -0.0000    0.0000   -0.0000    0.0001
       58 RE    10d1-       0.0000   -0.0000   -0.0076   -0.0000   -0.0000   -0.0010    0.0000   -0.0000    0.0000   -0.0004
       59 RE    11d1-      -0.0000    0.0000    0.0015   -0.0000   -0.0000   -0.0002   -0.0000    0.0000    0.0000    0.0001
       60 RE     3d0       -0.0013    0.0000   -0.0000   -0.0003   -0.0000    0.0000   -0.0004   -0.0000   -0.0035   -0.0000
       61 RE     4d0        0.9969   -0.0136    0.0000   -0.0083   -0.0000    0.0000   -0.0090   -0.0000   -0.0192    0.0000
       62 RE     5d0        0.0324   -0.0004    0.0000   -0.0025    0.0000   -0.0000   -0.0098    0.0000   -0.0648   -0.0000
       63 RE     6d0       -0.0336    0.0005   -0.0000    0.0031   -0.0000    0.0000    0.0050    0.0000    0.0309    0.0000
       64 RE     7d0        0.0328   -0.0004    0.0000   -0.0029    0.0000   -0.0000   -0.0016   -0.0000   -0.0115    0.0000
       65 RE     8d0       -0.0233    0.0003   -0.0000    0.0017    0.0000   -0.0000    0.0008   -0.0000    0.0046   -0.0000
       66 RE     9d0        0.0119   -0.0002    0.0000   -0.0007    0.0000   -0.0000   -0.0009   -0.0000   -0.0035   -0.0000
       67 RE    10d0       -0.0087    0.0001   -0.0000    0.0008    0.0000   -0.0000    0.0008   -0.0000    0.0025   -0.0000
       68 RE    11d0        0.0018   -0.0000    0.0000    0.0000   -0.0000    0.0000    0.0001   -0.0000   -0.0009    0.0000
       69 RE     3d1+      -0.0000   -0.0012    0.0000   -0.0000    0.0003   -0.0000    0.0000    0.0000   -0.0000    0.0000
       70 RE     4d1+       0.0116    0.8546   -0.0000    0.0000    0.0135   -0.0000    0.0000    0.0000    0.0000    0.0000
       71 RE     5d1+       0.0004    0.0300   -0.0000    0.0000    0.0232   -0.0000   -0.0000   -0.0000    0.0000    0.0000
       72 RE     6d1+      -0.0004   -0.0310    0.0000    0.0000   -0.0159    0.0000   -0.0000    0.0000   -0.0000   -0.0000
       73 RE     7d1+       0.0004    0.0299   -0.0000   -0.0000    0.0089   -0.0000    0.0000    0.0000    0.0000   -0.0000
       74 RE     8d1+      -0.0003   -0.0208    0.0000   -0.0000   -0.0029    0.0000   -0.0000   -0.0000    0.0000    0.0000
       75 RE     9d1+       0.0001    0.0105   -0.0000    0.0000    0.0011   -0.0000    0.0000    0.0000    0.0000   -0.0000
       76 RE    10d1+      -0.0001   -0.0076    0.0000    0.0000   -0.0010    0.0000   -0.0000   -0.0000   -0.0000    0.0000
       77 RE    11d1+       0.0000    0.0015   -0.0000    0.0000   -0.0002    0.0000    0.0000    0.0000   -0.0000   -0.0000
       78 RE     3d2+       0.0000    0.0005   -0.0000    0.0000   -0.0001    0.0000   -0.0000   -0.0000    0.0000    0.0000
       79 RE     4d2+      -0.0069   -0.5078    0.0000   -0.0000   -0.0067    0.0000   -0.0000   -0.0000    0.0000    0.0000
       80 RE     5d2+      -0.0002   -0.0180    0.0000    0.0000   -0.0140    0.0000    0.0000    0.0000    0.0000    0.0000
       81 RE     6d2+       0.0003    0.0186   -0.0000   -0.0000    0.0079   -0.0000    0.0000   -0.0000   -0.0000   -0.0000
       82 RE     7d2+      -0.0002   -0.0180    0.0000    0.0000   -0.0039    0.0000   -0.0000   -0.0000    0.0000    0.0000
       83 RE     8d2+       0.0002    0.0126   -0.0000    0.0000    0.0016   -0.0000    0.0000    0.0000    0.0000   -0.0000
       84 RE     9d2+      -0.0001   -0.0064    0.0000   -0.0000   -0.0008    0.0000   -0.0000   -0.0000    0.0000    0.0000
       85 RE    10d2+       0.0001    0.0047   -0.0000   -0.0000    0.0006   -0.0000    0.0000    0.0000    0.0000   -0.0000
       86 RE    11d2+      -0.0000   -0.0009    0.0000   -0.0000    0.0001   -0.0000   -0.0000   -0.0000   -0.0000    0.0000
       87 RE     4f3-       0.0000   -0.0000   -0.0000    0.0000    0.0000    0.0000   -0.0000    0.9888   -0.0000    0.0000
       88 RE     5f3-      -0.0000   -0.0000   -0.0000   -0.0000    0.0000    0.0000   -0.0000    0.1451   -0.0000    0.0000
       89 RE     6f3-       0.0000    0.0000    0.0000   -0.0000   -0.0000   -0.0000   -0.0000   -0.0331    0.0000    0.0000
       90 RE     7f3-       0.0000    0.0000    0.0000   -0.0000   -0.0000   -0.0000    0.0000   -0.0018   -0.0000    0.0000
[...]
     -----------------------------------------------------------------------------------------------
         1    7       1.36228431E-04  2.88988615E-05  5.74998435E+03  1.48121415E-09  5.74998438E+03
         1    9       3.47510125E-04  5.80572863E+03  2.87678031E-05  8.93826128E+03  1.47439899E+04
         1   13       5.93196288E-02  6.08931917E-01  1.19886854E+08  1.55396735E-05  1.19886855E+08
         1   15       8.12661143E-02  1.19732791E+08  5.93101513E-01  4.45597935E+07  1.64292585E+08
         1   17       2.27686074E-02  5.97048831E-02  4.84186693E+07  2.17109859E-05  4.84186694E+07
         2    8       1.36228431E-04  2.88988615E-05  5.74998435E+03  1.48121415E-09  5.74998438E+03
         2   10       3.47510125E-04  5.80572863E+03  2.87678031E-05  8.93826128E+03  1.47439899E+04
         2   14       5.93196288E-02  6.08931917E-01  1.19886854E+08  1.55396735E-05  1.19886855E+08
         2   16       8.12661143E-02  1.19732791E+08  5.93101513E-01  4.45597935E+07  1.64292585E+08
         2   18       2.27686074E-02  5.97048831E-02  4.84186693E+07  2.17109859E-05  4.84186694E+07
         3    7       3.47159518E-04  5.77498739E+03  2.86170654E-05  8.86287182E+03  1.46378592E+04
         3    9       1.36285668E-04  2.90321507E-05  5.77628341E+03  1.48063420E-09  5.77628344E+03
         3   13       8.17253859E-02  1.20571788E+08  5.97251567E-01  4.45730645E+07  1.65144853E+08
         3   15       5.85844942E-02  6.01525443E-01  1.18420280E+08  1.53909439E-05  1.18420281E+08
         3   17       2.30354072E-02  4.89769708E+07  6.04092077E-02  1.90719976E+03  4.89788781E+07
         4    8       3.47159518E-04  5.77498739E+03  2.86170654E-05  8.86287182E+03  1.46378592E+04
         4   10       1.36285668E-04  2.90321507E-05  5.77628341E+03  1.48063420E-09  5.77628344E+03
         4   14       8.17253859E-02  1.20571788E+08  5.97251567E-01  4.45730645E+07  1.65144853E+08
         4   16       5.85844942E-02  6.01525443E-01  1.18420280E+08  1.53909439E-05  1.18420281E+08
         4   18       2.30354072E-02  4.89769708E+07  6.04092077E-02  1.90719976E+03  4.89788781E+07
         5    7       2.95953346E-05  4.71372427E+02  5.94865641E-07  1.27137151E-03  4.71373699E+02
         5    9       2.99593583E-05  6.07360208E-07  4.81207313E+02  1.46256810E-11  4.81207314E+02
         5   11       2.84855488E-03  5.29831212E+00  2.65954169E-08  1.81581474E+06  1.81582004E+06
         5   13       2.57052684E-01  4.63206110E+08  5.90572788E-01  3.23769862E+03  4.63209348E+08
         5   15       2.57502630E-01  5.91817798E-01  4.64173302E+08  3.70981980E-05  4.64173303E+08
         5   17       5.66633575E-01  8.49253714E+02  4.36113209E-06  1.07757561E+09  1.07757646E+09
         6    8       2.95953346E-05  4.71372427E+02  5.94865641E-07  1.27137151E-03  4.71373699E+02
         6   10       2.99593583E-05  6.07360208E-07  4.81207313E+02  1.46256810E-11  4.81207314E+02
         6   12       2.84855488E-03  5.29831212E+00  2.65954169E-08  1.81581474E+06  1.81582004E+06
         6   14       2.57052684E-01  4.63206110E+08  5.90572788E-01  3.23769862E+03  4.63209348E+08
         6   16       2.57502630E-01  5.91817798E-01  4.64173302E+08  3.70981980E-05  4.64173303E+08
         6   18       5.66633575E-01  8.49253714E+02  4.36113209E-06  1.07757561E+09  1.07757646E+09
         7   11       9.88999540E-03  4.46886245E+06  5.64013529E-03  2.36530497E+00  4.46886482E+06
         7   13       8.05814742E-02  3.54522721E+07  1.80601287E-01  8.37359007E+07  1.19188173E+08
         7   15       2.42094896E-02  1.81047063E-01  3.58213353E+07  2.74282197E-06  3.58213355E+07
         7   17       5.74428021E-02  9.01601359E+07  1.13784859E-01  2.46924609E+02  9.01603829E+07
         8   12       9.88999540E-03  4.46886245E+06  5.64013529E-03  2.36530497E+00  4.46886482E+06
         8   14       8.05814742E-02  3.54522721E+07  1.80601287E-01  8.37359007E+07  1.19188173E+08
         8   16       2.42094896E-02  1.81047063E-01  3.58213353E+07  2.74282197E-06  3.58213355E+07
         8   18       5.74428021E-02  9.01601359E+07  1.13784859E-01  2.46924609E+02  9.01603829E+07
         9   11       9.87772425E-03  5.62401116E-03  4.45625056E+06  2.68693491E-08  4.45625056E+06
         9   13       2.38930564E-02  1.78466287E-01  3.53093095E+07  2.75471989E-06  3.53093097E+07
         9   15       8.06319030E-02  3.54905128E+07  1.80777281E-01  8.37112517E+07  1.19201765E+08
         9   17       5.76751855E-02  1.14156068E-01  9.04481782E+07  2.77240211E-06  9.04481784E+07
        10   12       9.87772425E-03  5.62401116E-03  4.45625056E+06  2.68693491E-08  4.45625056E+06
        10   14       2.38930564E-02  1.78466287E-01  3.53093095E+07  2.75471989E-06  3.53093097E+07
        10   16       8.06319030E-02  3.54905128E+07  1.80777281E-01  8.37112517E+07  1.19201765E+08
        10   18       5.76751855E-02  1.14156068E-01  9.04481782E+07  2.77240211E-06  9.04481784E+07
        11   13       3.78116221E-02  1.11889855E+07  1.42658310E-02  1.00347890E+01  1.11889955E+07
        11   15       3.78465547E-02  1.42904659E-02  1.12084552E+07  1.14866328E-07  1.12084553E+07
        11   17       5.01756108E-03  1.73812723E+01  8.90057635E-08  1.69150550E+06  1.69152288E+06
        12   14       3.78116221E-02  1.11889855E+07  1.42658310E-02  1.00347890E+01  1.11889955E+07
        12   16       3.78465547E-02  1.42904659E-02  1.12084552E+07  1.14866328E-07  1.12084553E+07
        12   18       5.01756108E-03  1.73812723E+01  8.90057635E-08  1.69150550E+06  1.69152288E+06
        13   17       1.85832824E-05  2.49478188E+01  3.18095581E-08  1.22406015E-03  2.49490429E+01
        14   18       1.85832824E-05  2.49478188E+01  3.18095581E-08  1.22406015E-03  2.49490429E+01
        15   17       1.86559022E-05  3.15474256E-08  2.47446194E+01  1.37825458E-11  2.47446194E+01
        16   18       1.86559022E-05  3.15474256E-08  2.47446194E+01  1.37825458E-11  2.47446194E+01
     -----------------------------------------------------------------------------------------------
--

++ Velocity transition strengths (SO states):
   ------------------------------------------
    for osc. strength at least    1.0000000000000001E-005

      From   To        Osc. strength     Einstein coefficients Ax, Ay, Az (sec-1)    Total A (sec-1)
     -----------------------------------------------------------------------------------------------
         1    9       1.41687758E-05  1.90266093E+02  9.64993673E-07  4.10881897E+02  6.01147991E+02
         1   13       5.24609982E-02  5.38768790E-01  1.06025712E+08  1.24632107E-05  1.06025713E+08
         1   15       7.00722881E-02  1.05921619E+08  5.24450833E-01  3.57413296E+07  1.41662949E+08
         1   17       1.76128101E-02  4.61853418E-02  3.74547190E+07  2.05204127E-05  3.74547190E+07
         2   10       1.41687758E-05  1.90266093E+02  9.64993673E-07  4.10881897E+02  6.01147991E+02
         2   14       5.24609982E-02  5.38768790E-01  1.06025712E+08  1.24632107E-05  1.06025713E+08
         2   16       7.00722881E-02  1.05921619E+08  5.24450833E-01  3.57413296E+07  1.41662949E+08
         2   18       1.76128101E-02  4.61853418E-02  3.74547190E+07  2.05204127E-05  3.74547190E+07
         3    7       1.39245053E-05  1.78315194E+02  9.04803531E-07  4.08808726E+02  5.87123921E+02
         3   13       7.04594004E-02  1.06655394E+08  5.28079934E-01  3.57244510E+07  1.42379845E+08
         3   15       5.18072821E-02  5.32179797E-01  1.04721467E+08  1.23366996E-05  1.04721468E+08
         3   17       1.78219393E-02  3.78921051E+07  4.67368277E-02  1.80403439E+03  3.78939092E+07
         4    8       1.39245053E-05  1.78315194E+02  9.04803531E-07  4.08808726E+02  5.87123921E+02
         4   14       7.04594004E-02  1.06655394E+08  5.28079934E-01  3.57244510E+07  1.42379845E+08
         4   16       5.18072821E-02  5.32179797E-01  1.04721467E+08  1.23366996E-05  1.04721468E+08
         4   18       1.78219393E-02  3.78921051E+07  4.67368277E-02  1.80403439E+03  3.78939092E+07
         5    7       1.27895758E-05  2.03591159E+02  2.57018266E-07  1.12927590E-01  2.03704087E+02
         5    9       1.25762516E-05  2.54870132E-07  2.02000498E+02  1.28399803E-09  2.02000498E+02
         5   11       4.45273811E-03  1.77049904E+01  8.96470891E-08  2.83840372E+06  2.83842143E+06
         5   13       2.35642817E-01  4.24627370E+08  5.41386532E-01  2.84009218E+03  4.24630210E+08
         5   15       2.36056316E-01  5.42529260E-01  4.25515735E+08  3.25547230E-05  4.25515736E+08
         5   17       4.99105890E-01  8.28088469E+02  4.24656684E-06  9.49160413E+08  9.49161241E+08
         6    8       1.27895758E-05  2.03591159E+02  2.57018266E-07  1.12927590E-01  2.03704087E+02
         6   10       1.25762516E-05  2.54870132E-07  2.02000498E+02  1.28399803E-09  2.02000498E+02
         6   12       4.45273811E-03  1.77049904E+01  8.96470891E-08  2.83840372E+06  2.83842143E+06
         6   14       2.35642817E-01  4.24627370E+08  5.41386532E-01  2.84009218E+03  4.24630210E+08
         6   16       2.36056316E-01  5.42529260E-01  4.25515735E+08  3.25547230E-05  4.25515736E+08
         6   18       4.99105890E-01  8.28088469E+02  4.24656684E-06  9.49160413E+08  9.49161241E+08
         7   11       6.29383655E-03  2.84392472E+06  3.58934493E-03  3.20355296E-03  2.84392473E+06
         7   13       6.56176818E-02  3.12524486E+07  1.59248893E-01  6.58030950E+07  9.70555438E+07
         7   15       2.13485706E-02  1.59610029E-01  3.15883143E+07  2.15442038E-06  3.15883145E+07
         7   17       4.32532791E-02  6.78889872E+07  8.56777847E-02  2.10689422E+02  6.78891980E+07
         8   12       6.29383655E-03  2.84392472E+06  3.58934493E-03  3.20355296E-03  2.84392473E+06
         8   14       6.56176818E-02  3.12524486E+07  1.59248893E-01  6.58030950E+07  9.70555438E+07
         8   16       2.13485706E-02  1.59610029E-01  3.15883143E+07  2.15442038E-06  3.15883145E+07
         8   18       4.32532791E-02  6.78889872E+07  8.56777847E-02  2.10689422E+02  6.78891980E+07
         9   11       6.27670959E-03  3.57370216E-03  2.83169353E+06  4.22426597E-11  2.83169353E+06
         9   13       2.10615551E-02  1.57275136E-01  3.11250073E+07  2.16580776E-06  3.11250075E+07
         9   15       6.56622870E-02  3.12840733E+07  1.59393702E-01  6.57877729E+07  9.70718463E+07
         9   17       4.34264249E-02  8.59541039E-02  6.81030263E+07  2.36473886E-06  6.81030264E+07
        10   12       6.27670959E-03  3.57370216E-03  2.83169353E+06  4.22426597E-11  2.83169353E+06
        10   14       2.10615551E-02  1.57275136E-01  3.11250073E+07  2.16580776E-06  3.11250075E+07
        10   16       6.56622870E-02  3.12840733E+07  1.59393702E-01  6.57877729E+07  9.70718463E+07
        10   18       4.34264249E-02  8.59541039E-02  6.81030263E+07  2.36473886E-06  6.81030264E+07
        11   13       1.56836594E-02  4.64102972E+06  5.91727740E-03  3.78252816E+00  4.64103351E+06
        11   15       1.56936002E-02  5.92574135E-03  4.64775800E+06  4.36198672E-08  4.64775800E+06
        11   17       9.58032089E-03  1.86679701E+01  9.48352803E-08  3.22971548E+06  3.22973415E+06
        12   14       1.56836594E-02  4.64102972E+06  5.91727740E-03  3.78252816E+00  4.64103351E+06
        12   16       1.56936002E-02  5.92574135E-03  4.64775800E+06  4.36198672E-08  4.64775800E+06
        12   18       9.58032089E-03  1.86679701E+01  9.48352803E-08  3.22971548E+06  3.22973415E+06
        13   17       3.47093091E-05  4.65963176E+01  5.94011308E-08  2.93425026E-03  4.65992519E+01
        14   18       3.47093091E-05  4.65963176E+01  5.94011308E-08  2.93425026E-03  4.65992519E+01
        15   17       3.54370348E-05  5.99326579E-08  4.70027652E+01  3.28481536E-11  4.70027652E+01
        16   18       3.54370348E-05  5.99326579E-08  4.70027652E+01  3.28481536E-11  4.70027652E+01
     -----------------------------------------------------------------------------------------------
--

++ Length and velocity gauge comparison (SO states):

 --------------------------------------------------
 A comparison between the dipole oscillator strengths in 
 length and velocity gauge will be performed

 All dipole oscillator differences above the tolerance of   0.10000000000000001       will be printed 

 Due to basis set deficiency these oscillator may be problematic 

 The tolerance is defined as ABS(1-O_l/O_v) 
 O_l : dipole oscillator strength in length gauge
 O_p : dipole oscillator strength in velocity gauge
 --------------------------------------------------

  Problematic transitions have been found

      From   To       Difference (%) Osc. st. (len.) Osc. st. (vel.)
     ---------------------------------------------------------------
         1    7      ---------------  1.36228431E-04 below threshold
         1    9          2352.647506  3.47510125E-04  1.41687758E-05
         1   13            13.073771  5.93196288E-02  5.24609982E-02
         1   15            15.974683  8.12661143E-02  7.00722881E-02
         1   17            29.272997  2.27686074E-02  1.76128101E-02
         2    8      ---------------  1.36228431E-04 below threshold
         2   10          2352.647506  3.47510125E-04  1.41687758E-05
         2   14            13.073771  5.93196288E-02  5.24609982E-02
         2   16            15.974683  8.12661143E-02  7.00722881E-02
         2   18            29.272997  2.27686074E-02  1.76128101E-02
         3    7          2393.155125  3.47159518E-04  1.39245053E-05
         3    9      ---------------  1.36285668E-04 below threshold
         3   13            15.989329  8.17253859E-02  7.04594004E-02
         3   15            13.081582  5.85844942E-02  5.18072821E-02
         3   17            29.253090  2.30354072E-02  1.78219393E-02
         4    8          2393.155125  3.47159518E-04  1.39245053E-05
         4   10      ---------------  1.36285668E-04 below threshold
         4   14            15.989329  8.17253859E-02  7.04594004E-02
         4   16            13.081582  5.85844942E-02  5.18072821E-02
         4   18            29.253090  2.30354072E-02  1.78219393E-02
         5    7           131.402004  2.95953346E-05  1.27895758E-05
         5    9           138.221683  2.99593583E-05  1.25762516E-05
         5   11            36.026894  2.84855488E-03  4.45273811E-03
         5   17            13.529731  5.66633575E-01  4.99105890E-01
         6    8           131.402004  2.95953346E-05  1.27895758E-05
         6   10           138.221683  2.99593583E-05  1.25762516E-05
         6   12            36.026894  2.84855488E-03  4.45273811E-03
         6   18            13.529731  5.66633575E-01  4.99105890E-01
         7   11            57.137786  9.88999540E-03  6.29383655E-03
         7   13            22.804512  8.05814742E-02  6.56176818E-02
         7   15            13.400986  2.42094896E-02  2.13485706E-02
         7   17            32.805658  5.74428021E-02  4.32532791E-02
         8   12            57.137786  9.88999540E-03  6.29383655E-03
         8   14            22.804512  8.05814742E-02  6.56176818E-02
         8   16            13.400986  2.42094896E-02  2.13485706E-02
         8   18            32.805658  5.74428021E-02  4.32532791E-02
         9   11            57.371057  9.87772425E-03  6.27670959E-03
         9   13            13.443932  2.38930564E-02  2.10615551E-02
         9   15            22.797890  8.06319030E-02  6.56622870E-02
         9   17            32.811268  5.76751855E-02  4.34264249E-02
        10   12            57.371057  9.87772425E-03  6.27670959E-03
        10   14            13.443932  2.38930564E-02  2.10615551E-02
        10   16            22.797890  8.06319030E-02  6.56622870E-02
        10   18            32.811268  5.76751855E-02  4.34264249E-02
        11   13           141.089284  3.78116221E-02  1.56836594E-02
        11   15           141.159161  3.78465547E-02  1.56936002E-02
        11   17            47.626378  5.01756108E-03  9.58032089E-03
        12   14           141.089284  3.78116221E-02  1.56836594E-02
        12   16           141.159161  3.78465547E-02  1.56936002E-02
        12   18            47.626378  5.01756108E-03  9.58032089E-03
        13   17            46.460236  1.85832824E-05  3.47093091E-05
        14   18            46.460236  1.85832824E-05  3.47093091E-05
        15   17            47.354788  1.86559022E-05  3.54370348E-05
        16   18            47.354788  1.86559022E-05  3.54370348E-05
     ---------------------------------------------------------------

 Number of problematic transitions =                    54

--

 Electric-dipole - electric-octupole not included
++ I/O STATISTICS
 
  I. General I/O information
  - - - - - - - - - - - - - - - - - - - - - - - - - - - - - - - - - - - - - - - - - - -
  Unit  Name          Flsize      Write/Read            MBytes           Write/Read
                      (MBytes)       Calls              In/Out           Time, sec.
  - - - - - - - - - - - - - - - - - - - - - - - - - - - - - - - - - - - - - - - - - - -
   1  SCRATCH           0.00 .       9/      45 .      0.0/      0.0 .       0/       0
   2  ANNI              0.00 .       0/       0 .      0.0/      0.0 .       0/       0
   3  RUNFILE          15.28 .     322/   10733 .      2.3/     77.8 .       0/       0
   4  ONEINT            6.58 .       0/   28767 .      0.0/   3777.9 .       0/       0
   5  JOBIPH            7.71 .       0/      92 .      0.0/      0.9 .       0/       0
   6  ORDINT          771.03 .       1/    6169 .      0.0/   1542.0 .       0/       0
  - - - - - - - - - - - - - - - - - - - - - - - - - - - - - - - - - - - - - - - - - - -
   *  TOTAL           800.61 .     332/   45806 .      2.3/   5398.7 .       0/       0
  - - - - - - - - - - - - - - - - - - - - - - - - - - - - - - - - - - - - - - - - - - -
 
  II. I/O Access Patterns
  - - - - - - - - - - - - - - - - - - - -
  Unit  Name               % of random
                         Write/Read calls
  - - - - - - - - - - - - - - - - - - - -
   1  SCRATCH             88.9/ 100.0
   2  ANNI                 0.0/   0.0
   3  RUNFILE             28.6/  10.8
   4  ONEINT               0.0/  13.4
   5  JOBIPH               0.0/  76.1
   6  ORDINT             100.0/   0.0
  - - - - - - - - - - - - - - - - - - - -
--
--- Stop Module: rassi at Thu Jan  9 20:52:09 2025 /rc=_RC_ALL_IS_WELL_ ---
*** files: xmldump
    saved to directory /home4/s4752295/Internship/Initial_simulations/Point_charge_model/1_electron/active_space_9_non_rel/Re/varying_bond_length
--- Module rassi spent 5 seconds ---

.##################.
.# Happy landing! #.
.##################.

    Timing: Wall=138.65 User=107.57 System=24.23

###############################################################################
Hbrk Cluster
Job 14549876 for user s4752295
Finished at: Thu Jan  9 20:52:09 CET 2025

Job details:
============

Job ID                         : 14549876
Name                           : Re_no_c_light
User                           : s4752295
Partition                      : regularmedium
Nodes                          : node80
Number of Nodes                : 1
Cores                          : 1
Number of Tasks                : 1
State                          : RUNNING  
Submit                         : 2025-01-09T20:49:44
Start                          : 2025-01-09T20:49:45
End                            : --
Reserved walltime              : 15:00:00
Used walltime                  : 00:02:24
Used CPU time                  : -- 
% User (Computation)           : --
% System (I/O)                 : --
Total memory reserved          : 25000M
Maximum memory used            : --

Acknowledgements:
=================

Please see this page for information about acknowledging Hbrk in your publications:

https://wiki.hpc.rug.nl/habrok/introduction/scientific_output

################################################################################
