   This run of MOLCAS is using the pymolcas driver

                             OPE
                             OPE          NMOL  CASOP  ENMOLC A   SO
                 OPE        NMOLC        AS  OP EN  MO LC     AS  OP
                OPENM       OL CA        SO  PE NM  OL CA     SOP EN
                OP EN      MO   LC       AS  OP ENMOL  CASO   PENMOL
                OP  EN     MO   LC       AS  OP EN     MO     LC ASO
               OP   E  NMOL  C  AS       OP  EN MO     LC     AS  OP
               OP  E   NMO   LC AS        OPEN  MO     LCASOP EN   M
               O  PEN   MO  LCA  SO
            OPE   NMO   L   CAS    OP
        OPENMOL  CASOP     ENMOL   CASOPE
     OPENMOLCA   SOPENMOLCASOPEN   MOLCASOPE
    OPENMOLCAS   OP           EN   MOL    CAS
    OPENMOLCAS       OP  ENM        O     LCA
    OPENMOLCAS    OPEN  MOLCASO     P  E  NMO
    OPENMOLCAS     OP               E  N  MOL
    OPENMOLCA   SO           PENM   O  L  CAS    OPEN    MO    LCAS
    OPENMOLCA   SOP           ENM   O  L  CAS   OP  EN  MOLC  AS   O
    OPENMOLCA   SOPE           NM      O  LCA   S      OP  EN MO
    OPENMOLC                AS         O  PEN   M      OL  CA  SOPE
    OPENMO        LCASOPE  NMOL        C  ASO   P      ENMOLC     AS
    OPE     NMO      LCA  SO     P     E   NM   OL  CA SO  PE N   MO
          OPENMOLCA            SOPE   NMO        LCAS  O    P  ENMO
     OPENMOLCASOPENMOLCASOPENMOLCASOPENMOLCA
        OPENMOLCASOPENMOLCASOPENMOLCASOPE
            OPENMOLCASOPENMOLCASOPENM
               OPENMOLCASOPENMOLCA        version: o91e1abe7de707b ?
                   OPENMOLCASO
                       OPE                tag:

 OpenMolcas is free software; you can redistribute it and/or modify it
 under the terms of the GNU Lesser General Public License version 2.1.
 OpenMolcas is distributed in the hope that it will be useful, but it
 is provided "as is" and without any express or implied warranties.
 For more details see the full text of the license in the file
 LICENSE or in <http://www.gnu.org/licenses/>.

                 Copyright (C) The OpenMolcas Authors
           For the author list and the recommended citation,
                   consult the file CONTRIBUTORS.md

           *************************************************
           * pymolcas version py2.10                       *
           *   build 3068ae8b88c9345ec6cfef6fef7f1169      *
           *   (after the EMIL interpreter by V. Veryazov) *
           *************************************************

configuration info
------------------
Host name: login1 (Linux)
C Compiler ID: GNU
C flags: -std=gnu99
Fortran Compiler ID: GNU
Fortran flags: -fno-aggressive-loop-optimizations -cpp -fdefault-integer-8 -fmax-stack-var-size=1048576
Definitions: _MOLCAS_;_I8_;_LINUX_;_MKL_
Parallel: OFF (GA=OFF)


   ----------------------------------------------------------------------------------------------------------------------------------------------
  |
  |           Project: rhenium_so_cf
  |    Submitted from: /home4/s4752295/Internship/Initial_simulations/Point_charge_model/1_electron/active_space_9_non_rel/Re/varying_bond_length
  |      Scratch area: /tmp/rhenium_so_cf
  |   Save outputs to: /home4/s4752295/Internship/Initial_simulations/Point_charge_model/1_electron/active_space_9_non_rel/Re/varying_bond_length
  |            Molcas: /home4/s4752295/Internship/Molcas/recomp_try/OpenMolcas-master/build
  |
  | Scratch area is empty
  |
  |    MOLCAS_DRIVER = /home4/s4752295/Internship/Molcas/bin/pymolcas
  |    MOLCAS_NPROCS = 1
  |    MOLCAS_SOURCE = /home4/s4752295/Internship/Molcas/recomp_try/OpenMolcas-master
  | MOLCAS_STRUCTURE = 0
  |
   ----------------------------------------------------------------------------------------------------------------------------------------------

++ ---------   Input file   ---------

&SEWARD
AMFi

CLIG
$R

Basis Set
Re.ano-rcc.Roos.24s21p15d11f4g2h.11s10p9d8f4g2h.
Spherical d
Re            0.0       0.0     0.0
End of Basis

Xfield

4
0.000000,  0.000,  11.34        -1.0
9.820728,  0.000,  -5.67        -1.0
-4.910364,  8.505,  -5.67       -1.0
-4.910364, -8.505,  -5.67       -1.0

End of input

&SCF
Occupied
34
Iterations
   50  100
End of Input

&RASSCF
LumOrb
Symmetry
1
Spin
2
Nactel
1 0 0
CIRoot
9 9 1
inactive
34
ras2
9
End of Input

>>> COPY rhenium_so_cf.JobIph $SLURM_SUBMIT_DIR/rhenium_so_cf.doublet.JobIph

>>> COPY $SLURM_SUBMIT_DIR/rhenium_so_cf.doublet.JobIph ./JOB002

&RASSI
NROFJobIph
1 All
SpinOrbit
End of Input

EOF

-- ----------------------------------

--- Start Module: seward at Thu Dec 26 11:55:46 2024 ---

()()()()()()()()()()()()()()()()()()()()()()()()()()()()()()()()()()()()()()()()()()()()()()()()()()

                                              &SEWARD

                                   only a single process is used
                       available to each process: 4.1 GB of memory, 1 thread?
                                            pid: 1521813
()()()()()()()()()()()()()()()()()()()()()()()()()()()()()()()()()()()()()()()()()()()()()()()()()()

 The speed of LIGHT in this CALCULATION =   137.03599917700001     
               SEWARD will generate:
                  Multipole Moment integrals up to order  2
                  Kinetic Energy integrals
                  Nuclear Attraction integrals (point charge)
                  One-Electron Hamiltonian integrals
                  Velocity integrals
                  Relativistic Douglas-Kroll-Hess integrals:
                    - Parametrization         : EXP
                    - DKH order of Hamiltonian: 2
                    - DKH order of Properties : 0
                         - multipole moment operators
                         - electric potential operators
                         - contact operators
                  External field from     4 point(s) added to the one-electron Hamiltonian
                  Orbital angular momentum around ( 0.0000  0.0000  0.0000 )
                  Velocity quadrupole around ( 0.0000  0.0000  0.0000 )
                  Atomic mean-field integrals
                  Two-Electron Repulsion integrals

                   Integrals are discarded if absolute value <: 0.10E-13
                   Integral cutoff threshold is set to       <: 0.10E-15

++    Symmetry information:
      ---------------------

                    Character Table for C1 

                             E  
                    a        1  x, y, xy, Rz, z, xz, Ry, yz, Rx, I
--


++    Basis set information:
      ----------------------


      Basis set label: RE.ANO-RCC.ROOS.24S21P15D11F4G2H.11S10P9D8F4G2H......

      Electronic valence basis set:
      ------------------
      Associated Effective Charge  75.000000 au
      Associated Actual Charge     75.000000 au
      Nuclear Model: Point charge

      Shell  nPrim  nBasis  Cartesian Spherical Contaminant
         s      24      11        X                  
         p      21      10        X                  
         d      15       9                 X         
         f      11       8                 X         
         g       4       4                 X         
         h       2       2                 X         
--


++    Molecular structure info:
      -------------------------

                    ************************************************ 
                    **** Cartesian Coordinates / Bohr, Angstrom **** 
                    ************************************************ 

     Center  Label                x              y              z                     x              y              z
        1      RE               0.000000       0.000000       0.000000              0.000000       0.000000       0.000000
--


++    Operator info:
      --------------


  Net charge from external field:   -4.0000000000000000     
--


            Nuclear Potential Energy              0.00000000 au

                    Nuclear-External Field Potential Energy     -26.45502651 au
                    External Field Potential Energy               0.32910501 au 


            Total Nuclear Potential Energy            -26.45502651 au


      Basis set specifications :
      Symmetry species         a  
      Basis functions          200

 Sorry, Molden does not know how to handle
 functions with angular momentum larger than g
Note: The following floating-point exceptions are signalling: IEEE_UNDERFLOW_FLAG IEEE_DENORMAL
--- Stop Module: seward at Thu Dec 26 11:56:03 2024 /rc=_RC_ALL_IS_WELL_ ---
*** files: rhenium_so_cf.GssOrb xmldump
    saved to directory /home4/s4752295/Internship/Initial_simulations/Point_charge_model/1_electron/active_space_9_non_rel/Re/varying_bond_length
--- Module seward spent 16 seconds ---

*** symbolic link created: INPORB -> rhenium_so_cf.GssOrb
--- Start Module: scf at Thu Dec 26 11:56:03 2024 ---

()()()()()()()()()()()()()()()()()()()()()()()()()()()()()()()()()()()()()()()()()()()()()()()()()()

                                                &SCF

                                   only a single process is used
                       available to each process: 4.1 GB of memory, 1 thread?
                                            pid: 1521874
()()()()()()()()()()()()()()()()()()()()()()()()()()()()()()()()()()()()()()()()()()()()()()()()()()

++    Input section:
      --------------

      Header of the integral files:
      
       Integrals generated by seward 4.2.0  , Thu Dec 26 11:55:46 2024


      Cartesian coordinates in Angstrom:
      -----------------------------------------------------
      No.  Label        X            Y            Z        
      -----------------------------------------------------
       1   RE         0.00000000   0.00000000   0.00000000
      -----------------------------------------------------
      Nuclear repulsion energy =  -26.45502651
--

++    Orbital specifications:
      -----------------------

      Symmetry species               1
                                     a
      Frozen orbitals                0
      Occupied orbitals             34
      Secondary orbitals           166
      Deleted orbitals               0
      Total number of orbitals     200
      Number of basis functions    200
--

      Molecular charge                           7.000

++    Optimization specifications:
      ----------------------------

      SCF Algorithm: Conventional
      Minimized density differences are used
      Number of density matrices in core                5
      Maximum number of NDDO SCF iterations            50
      Maximum number of HF SCF iterations             100
      Threshold for SCF energy change            0.10E-08
      Threshold for density matrix               0.10E-03
      Threshold for Fock matrix                  0.15E-03
      Threshold for linear dependence            0.10E-08
      Threshold at which DIIS is turned on       0.15E+00
      Threshold at which QNR/C2DIIS is turned on 0.75E-01
      Threshold for Norm(delta) (QNR/C2DIIS)     0.20E-04
      DIIS extrapolation of the SCF procedure
      All orbitals punched on: SCFORB
--

      Detected guessorb starting orbitals                                             


++ Convergence information
                                   SCF        iterations: Energy and convergence statistics

Iter     Tot. SCF        One-elec.       Two-elec.     Energy      Max Dij or  Max Fij      DNorm      TNorm      AccCon     Time
         Energy          Energy          Energy        Change      Delta Norm                                                in Sec.

 The total and one-electron energies are shifted by a value of     16000. a.u.

   1  -668.224174538 -6574.899415323  5933.130267300   0.00E+00    0.18E+00*   0.23E+00*    0.12E+02   0.16E+04   None         1.
   2  -668.426871995 -6626.632268575  5984.660423095  -0.20E+00*   0.32E-01*   0.13E+00*    0.77E+00   0.16E+04   EDIIS        1.
   3  -668.432378221 -6586.137618403  5944.160266696  -0.55E-02*   0.56E-02*   0.64E-01*    0.27E+00   0.16E+04   EDIIS        1.
   4  -668.480153351 -6606.996798812  5964.971671977  -0.48E-01*   0.93E-03*   0.25E-02*    0.15E-01   0.16E+04   c2DIIS       1.
   5  -668.480233593 -6606.329538210  5964.304331131  -0.80E-04*   0.45E-03*   0.69E-03*    0.88E-03   0.16E+04   QNRc2DIIS    1.
   6  -668.480233843 -6606.113196475  5964.087989146  -0.25E-06*   0.20E-03*   0.66E-03*    0.15E-03   0.16E+04   QNRc2DIIS    1.
   7  -668.480235227 -6606.220691960  5964.195483247  -0.14E-05*   0.89E-05    0.18E-04     0.25E-04   0.16E+04   QNRc2DIIS    1.
   8  -668.480235228 -6606.220810401  5964.195601688  -0.67E-09    0.21E-05    0.48E-05     0.23E-03   0.16E+04   QNRc2DIIS    1.

       Convergence after  8 Macro Iterations
--

 *****************************************************************************************************************************
 *                                                                                                                           *
 *                                             SCF/KS-DFT Program, Final results                                             *
 *                                                                                                                           *
 *                                                                                                                           *
 *                                                                                                                           *
 *                                                       Final Results                                                       *
 *                                                                                                                           *
 *****************************************************************************************************************************

::    Total SCF energy                             -16668.4802352280
      One-electron energy                          -22606.2208104011
      Two-electron energy                            5964.1956016880
      Nuclear repulsion energy                        -26.4550265148
      Kinetic energy (interpolated)                 23687.6433161049
      Virial theorem                                    0.7036782855
      Total spin, S(S+1)                                0.0000000000
      Total spin, S                                     0.0000000000
      Max non-diagonal density matrix element           0.0000021064
      Max non-diagonal Fock matrix element              0.0000013303


      All orbitals with orbital energies smaller than  E(LUMO)+0.5 are printed

++    Molecular orbitals:
      -------------------

      Title: SCF orbitals

      Molecular orbitals for symmetry species 1: a  

          Some orbital energies have been scaled by powers of 10, the power is written right after the orbital index


          Orbital            1 (1)     2         3         4         5         6         7         8         9        10    
          Energy         -264.6158 -467.0678 -409.7163 -409.7163 -409.7163 -112.9451  -95.6184  -95.6184  -95.6184  -75.1156
          Occ. No.          2.0000    2.0000    2.0000    2.0000    2.0000    2.0000    2.0000    2.0000    2.0000    2.0000

        1 RE     1s         1.0000   -0.0000    0.0000    0.0000   -0.0000    0.0000   -0.0000   -0.0000    0.0000   -0.0000
        2 RE     2s         0.0000    1.0000    0.0000    0.0000   -0.0000    0.0000    0.0000    0.0000   -0.0000   -0.0000
        3 RE     3s        -0.0000   -0.0000   -0.0000   -0.0000    0.0000    1.0000    0.0000    0.0000   -0.0000   -0.0000
        4 RE     4s         0.0000    0.0000    0.0000    0.0000   -0.0000   -0.0001   -0.0000    0.0000    0.0000   -0.0000
        5 RE     5s        -0.0000    0.0000   -0.0000   -0.0000    0.0000   -0.0000   -0.0000   -0.0000   -0.0000   -0.0000
        6 RE     6s         0.0000    0.0000    0.0000    0.0000   -0.0000   -0.0000   -0.0000    0.0000    0.0000    0.0000
        7 RE     7s        -0.0000   -0.0000   -0.0000   -0.0000    0.0000    0.0000    0.0000    0.0000   -0.0000    0.0000
        8 RE     8s         0.0000    0.0000   -0.0000    0.0000   -0.0000   -0.0000    0.0000    0.0000    0.0000    0.0000
        9 RE     9s        -0.0000   -0.0000    0.0000    0.0000    0.0000    0.0000   -0.0000   -0.0000   -0.0000   -0.0000
       10 RE    10s         0.0000    0.0000    0.0000    0.0000   -0.0000   -0.0000   -0.0000   -0.0000    0.0000   -0.0000
       11 RE    11s        -0.0000   -0.0000   -0.0000   -0.0000    0.0000    0.0000    0.0000   -0.0000   -0.0000    0.0000
       12 RE     2px       -0.0000    0.0000    0.0034    1.0000    0.0000   -0.0000    0.0000    0.0000   -0.0000    0.0000
       13 RE     3px        0.0000   -0.0000   -0.0000   -0.0000   -0.0000   -0.0000    0.0178    0.9998   -0.0000    0.0000
       14 RE     4px        0.0000    0.0000    0.0000    0.0000    0.0000   -0.0000   -0.0000   -0.0001    0.0000    0.0000
       15 RE     5px        0.0000   -0.0000   -0.0000   -0.0000   -0.0000    0.0000    0.0000    0.0001   -0.0000   -0.0000
       16 RE     6px       -0.0000    0.0000    0.0000    0.0000    0.0000    0.0000   -0.0000   -0.0000    0.0000    0.0000
       17 RE     7px        0.0000   -0.0000   -0.0000   -0.0000   -0.0000   -0.0000    0.0000    0.0001   -0.0000   -0.0000
       18 RE     8px       -0.0000    0.0000    0.0000    0.0000    0.0000    0.0000   -0.0000   -0.0000    0.0000    0.0000
       19 RE     9px        0.0000   -0.0000   -0.0000   -0.0000   -0.0000   -0.0000    0.0000    0.0000   -0.0000   -0.0000
       20 RE    10px       -0.0000    0.0000    0.0000    0.0000    0.0000    0.0000   -0.0000   -0.0000    0.0000    0.0000
       21 RE    11px        0.0000   -0.0000   -0.0000   -0.0000   -0.0000   -0.0000    0.0000    0.0000   -0.0000   -0.0000
       22 RE     2py       -0.0000   -0.0000    1.0000   -0.0034    0.0000   -0.0000    0.0000   -0.0000    0.0000   -0.0000
       23 RE     3py        0.0000    0.0000   -0.0000    0.0000   -0.0000   -0.0000    0.9998   -0.0178    0.0000   -0.0000
       24 RE     4py       -0.0000    0.0000    0.0000   -0.0000    0.0000    0.0000   -0.0001    0.0000   -0.0000   -0.0000
       25 RE     5py        0.0000    0.0000   -0.0000    0.0000   -0.0000   -0.0000    0.0001   -0.0000    0.0000    0.0000
       26 RE     6py       -0.0000    0.0000    0.0000   -0.0000    0.0000    0.0000   -0.0000    0.0000   -0.0000   -0.0000
       27 RE     7py        0.0000   -0.0000   -0.0000    0.0000   -0.0000   -0.0000    0.0001   -0.0000    0.0000    0.0000
       28 RE     8py       -0.0000    0.0000    0.0000   -0.0000    0.0000    0.0000   -0.0000    0.0000   -0.0000   -0.0000
       29 RE     9py        0.0000   -0.0000   -0.0000    0.0000   -0.0000   -0.0000    0.0000   -0.0000    0.0000    0.0000
       30 RE    10py       -0.0000   -0.0000    0.0000   -0.0000    0.0000    0.0000   -0.0000    0.0000   -0.0000   -0.0000
       31 RE    11py        0.0000    0.0000   -0.0000    0.0000   -0.0000   -0.0000    0.0000   -0.0000    0.0000    0.0000
       32 RE     2pz        0.0000    0.0000   -0.0000   -0.0000    1.0000   -0.0000   -0.0000    0.0000    0.0000    0.0000
       33 RE     3pz       -0.0000    0.0000    0.0000    0.0000   -0.0000    0.0000   -0.0000    0.0000    1.0000    0.0000
       34 RE     4pz        0.0000   -0.0000   -0.0000   -0.0000    0.0000    0.0000    0.0000   -0.0000   -0.0001   -0.0000
       35 RE     5pz       -0.0000    0.0000    0.0000    0.0000   -0.0000   -0.0000   -0.0000    0.0000    0.0001   -0.0000
       36 RE     6pz        0.0000   -0.0000   -0.0000   -0.0000    0.0000    0.0000    0.0000   -0.0000   -0.0000   -0.0000
       37 RE     7pz       -0.0000    0.0000    0.0000    0.0000   -0.0000   -0.0000   -0.0000    0.0000    0.0001    0.0000
       38 RE     8pz        0.0000   -0.0000   -0.0000   -0.0000    0.0000    0.0000    0.0000   -0.0000   -0.0000   -0.0000
       39 RE     9pz       -0.0000    0.0000    0.0000    0.0000   -0.0000   -0.0000   -0.0000    0.0000    0.0000    0.0000
       40 RE    10pz        0.0000   -0.0000   -0.0000   -0.0000    0.0000    0.0000    0.0000   -0.0000   -0.0000   -0.0000
       41 RE    11pz       -0.0000    0.0000    0.0000    0.0000   -0.0000   -0.0000   -0.0000    0.0000    0.0000    0.0000
       42 RE     3d2-       0.0000    0.0000   -0.0000    0.0000   -0.0000    0.0000    0.0000   -0.0000    0.0000    0.0988
       43 RE     4d2-      -0.0000    0.0000    0.0000   -0.0000   -0.0000   -0.0000   -0.0000    0.0000   -0.0000   -0.0000
       44 RE     5d2-       0.0000    0.0000    0.0000   -0.0000    0.0000    0.0000   -0.0000    0.0000    0.0000    0.0000
       45 RE     6d2-      -0.0000   -0.0000   -0.0000    0.0000   -0.0000   -0.0000    0.0000   -0.0000   -0.0000   -0.0000
       46 RE     7d2-       0.0000    0.0000    0.0000   -0.0000    0.0000    0.0000    0.0000   -0.0000    0.0000    0.0000
       47 RE     8d2-      -0.0000   -0.0000   -0.0000    0.0000   -0.0000   -0.0000   -0.0000    0.0000   -0.0000   -0.0000
       48 RE     9d2-       0.0000    0.0000   -0.0000    0.0000   -0.0000    0.0000    0.0000   -0.0000    0.0000    0.0000
       49 RE    10d2-      -0.0000   -0.0000    0.0000   -0.0000    0.0000   -0.0000   -0.0000    0.0000   -0.0000   -0.0000
       50 RE    11d2-       0.0000    0.0000   -0.0000    0.0000   -0.0000    0.0000    0.0000   -0.0000   -0.0000    0.0000
       51 RE     3d1-      -0.0000   -0.0000    0.0000   -0.0000    0.0000    0.0000    0.0000   -0.0000    0.0000    0.0011
       52 RE     4d1-       0.0000    0.0000    0.0000   -0.0000    0.0000   -0.0000    0.0000   -0.0000    0.0000   -0.0000
       53 RE     5d1-      -0.0000   -0.0000   -0.0000    0.0000   -0.0000    0.0000   -0.0000    0.0000   -0.0000    0.0000
       54 RE     6d1-       0.0000    0.0000    0.0000   -0.0000    0.0000   -0.0000    0.0000   -0.0000    0.0000   -0.0000
       55 RE     7d1-      -0.0000   -0.0000   -0.0000    0.0000   -0.0000    0.0000   -0.0000    0.0000   -0.0000    0.0000
       56 RE     8d1-       0.0000   -0.0000    0.0000   -0.0000    0.0000   -0.0000    0.0000   -0.0000    0.0000   -0.0000
       57 RE     9d1-      -0.0000    0.0000   -0.0000    0.0000   -0.0000    0.0000   -0.0000    0.0000   -0.0000    0.0000
       58 RE    10d1-       0.0000    0.0000    0.0000   -0.0000    0.0000   -0.0000    0.0000   -0.0000    0.0000   -0.0000
       59 RE    11d1-      -0.0000   -0.0000   -0.0000    0.0000   -0.0000   -0.0000   -0.0000    0.0000   -0.0000    0.0000
       60 RE     3d0       -0.0000   -0.0000   -0.0000   -0.0000    0.0000   -0.0000   -0.0000    0.0000    0.0000   -0.0000
       61 RE     4d0        0.0000    0.0000   -0.0000   -0.0000    0.0000   -0.0000   -0.0000    0.0000    0.0000    0.0000
       62 RE     5d0       -0.0000   -0.0000    0.0000   -0.0000   -0.0000    0.0000    0.0000   -0.0000   -0.0000   -0.0000
       63 RE     6d0        0.0000    0.0000   -0.0000    0.0000    0.0000   -0.0000   -0.0000    0.0000    0.0000    0.0000
       64 RE     7d0       -0.0000   -0.0000    0.0000    0.0000   -0.0000    0.0000    0.0000   -0.0000   -0.0000   -0.0000
       65 RE     8d0        0.0000    0.0000   -0.0000   -0.0000    0.0000   -0.0000   -0.0000    0.0000    0.0000    0.0000
       66 RE     9d0       -0.0000   -0.0000    0.0000    0.0000   -0.0000    0.0000    0.0000   -0.0000   -0.0000   -0.0000
       67 RE    10d0        0.0000    0.0000   -0.0000   -0.0000    0.0000   -0.0000   -0.0000    0.0000    0.0000    0.0000
       68 RE    11d0       -0.0000   -0.0000    0.0000    0.0000   -0.0000    0.0000    0.0000   -0.0000   -0.0000   -0.0000
       69 RE     3d1+       0.0000    0.0000    0.0000    0.0000    0.0000    0.0000    0.0000    0.0000   -0.0000   -0.0107
       70 RE     4d1+       0.0000   -0.0000    0.0000    0.0000    0.0000    0.0000    0.0000    0.0000   -0.0000    0.0000
       71 RE     5d1+       0.0000    0.0000   -0.0000   -0.0000   -0.0000   -0.0000   -0.0000   -0.0000    0.0000   -0.0000
       72 RE     6d1+      -0.0000   -0.0000    0.0000    0.0000    0.0000    0.0000    0.0000    0.0000   -0.0000    0.0000
       73 RE     7d1+       0.0000    0.0000   -0.0000   -0.0000   -0.0000   -0.0000   -0.0000   -0.0000    0.0000   -0.0000
       74 RE     8d1+      -0.0000   -0.0000    0.0000    0.0000    0.0000    0.0000    0.0000    0.0000   -0.0000    0.0000
       75 RE     9d1+       0.0000    0.0000   -0.0000   -0.0000   -0.0000   -0.0000   -0.0000   -0.0000    0.0000   -0.0000
       76 RE    10d1+      -0.0000   -0.0000    0.0000    0.0000    0.0000    0.0000    0.0000    0.0000   -0.0000    0.0000
       77 RE    11d1+       0.0000    0.0000   -0.0000   -0.0000   -0.0000    0.0000   -0.0000   -0.0000    0.0000   -0.0000
       78 RE     3d2+      -0.0000    0.0000    0.0000    0.0000   -0.0000   -0.0000   -0.0000   -0.0000    0.0000    0.9950
       79 RE     4d2+      -0.0000    0.0000   -0.0000   -0.0000   -0.0000    0.0000    0.0000    0.0000   -0.0000   -0.0001
       80 RE     5d2+      -0.0000   -0.0000   -0.0000   -0.0000   -0.0000   -0.0000    0.0000    0.0000    0.0000    0.0000
       81 RE     6d2+       0.0000    0.0000    0.0000    0.0000    0.0000    0.0000   -0.0000   -0.0000   -0.0000   -0.0000
       82 RE     7d2+      -0.0000   -0.0000   -0.0000   -0.0000   -0.0000   -0.0000   -0.0000   -0.0000    0.0000    0.0000
       83 RE     8d2+       0.0000    0.0000    0.0000    0.0000    0.0000    0.0000    0.0000    0.0000   -0.0000   -0.0000
       84 RE     9d2+      -0.0000   -0.0000    0.0000    0.0000    0.0000   -0.0000   -0.0000   -0.0000    0.0000    0.0000
       85 RE    10d2+       0.0000    0.0000   -0.0000   -0.0000   -0.0000    0.0000    0.0000    0.0000   -0.0000   -0.0000
       86 RE    11d2+      -0.0000   -0.0000    0.0000    0.0000    0.0000   -0.0000   -0.0000   -0.0000    0.0000    0.0000
       87 RE     4f3-      -0.0000   -0.0000   -0.0000   -0.0000    0.0000    0.0000    0.0000    0.0000   -0.0000   -0.0000
       88 RE     5f3-       0.0000   -0.0000    0.0000    0.0000   -0.0000    0.0000   -0.0000   -0.0000    0.0000    0.0000
       89 RE     6f3-       0.0000    0.0000   -0.0000   -0.0000    0.0000   -0.0000    0.0000    0.0000   -0.0000   -0.0000
       90 RE     7f3-      -0.0000   -0.0000    0.0000    0.0000   -0.0000    0.0000   -0.0000   -0.0000    0.0000    0.0000
       91 RE     8f3-       0.0000    0.0000   -0.0000   -0.0000    0.0000   -0.0000    0.0000    0.0000   -0.0000   -0.0000
       92 RE     9f3-      -0.0000   -0.0000    0.0000    0.0000   -0.0000    0.0000   -0.0000   -0.0000    0.0000    0.0000
       93 RE    10f3-       0.0000    0.0000    0.0000   -0.0000    0.0000   -0.0000    0.0000    0.0000   -0.0000   -0.0000
       94 RE    11f3-      -0.0000   -0.0000   -0.0000    0.0000   -0.0000    0.0000    0.0000   -0.0000   -0.0000    0.0000
       95 RE     4f2-      -0.0000   -0.0000    0.0000   -0.0000   -0.0000    0.0000    0.0000   -0.0000   -0.0000    0.0000
       96 RE     5f2-       0.0000   -0.0000   -0.0000    0.0000   -0.0000   -0.0000   -0.0000    0.0000   -0.0000   -0.0000
       97 RE     6f2-       0.0000    0.0000   -0.0000    0.0000    0.0000    0.0000    0.0000   -0.0000    0.0000    0.0000
       98 RE     7f2-      -0.0000   -0.0000   -0.0000    0.0000   -0.0000    0.0000   -0.0000    0.0000    0.0000   -0.0000
       99 RE     8f2-       0.0000    0.0000    0.0000   -0.0000    0.0000   -0.0000    0.0000   -0.0000   -0.0000    0.0000
      100 RE     9f2-      -0.0000   -0.0000   -0.0000    0.0000   -0.0000    0.0000   -0.0000    0.0000    0.0000   -0.0000
      101 RE    10f2-       0.0000    0.0000    0.0000   -0.0000    0.0000   -0.0000    0.0000   -0.0000    0.0000    0.0000
      102 RE    11f2-      -0.0000   -0.0000   -0.0000    0.0000    0.0000   -0.0000   -0.0000    0.0000   -0.0000   -0.0000
      103 RE     4f1-       0.0000   -0.0000   -0.0000    0.0000   -0.0000    0.0000   -0.0000    0.0000   -0.0000    0.0000
      104 RE     5f1-      -0.0000    0.0000    0.0000   -0.0000    0.0000   -0.0000    0.0000   -0.0000    0.0000   -0.0000
      105 RE     6f1-      -0.0000   -0.0000   -0.0000    0.0000   -0.0000    0.0000   -0.0000    0.0000   -0.0000    0.0000
      106 RE     7f1-       0.0000    0.0000    0.0000   -0.0000    0.0000   -0.0000    0.0000   -0.0000    0.0000   -0.0000
      107 RE     8f1-       0.0000   -0.0000   -0.0000    0.0000   -0.0000    0.0000   -0.0000    0.0000   -0.0000    0.0000
      108 RE     9f1-      -0.0000    0.0000    0.0000   -0.0000    0.0000   -0.0000    0.0000   -0.0000    0.0000   -0.0000
      109 RE    10f1-       0.0000   -0.0000   -0.0000    0.0000   -0.0000    0.0000   -0.0000    0.0000   -0.0000    0.0000
      110 RE    11f1-      -0.0000    0.0000    0.0000   -0.0000    0.0000   -0.0000    0.0000   -0.0000    0.0000    0.0000
      111 RE     4f0       -0.0000    0.0000    0.0000    0.0000   -0.0000    0.0000    0.0000   -0.0000   -0.0000   -0.0000
      112 RE     5f0        0.0000   -0.0000   -0.0000   -0.0000    0.0000   -0.0000   -0.0000    0.0000    0.0000    0.0000
      113 RE     6f0       -0.0000    0.0000    0.0000    0.0000   -0.0000    0.0000    0.0000   -0.0000   -0.0000   -0.0000
      114 RE     7f0       -0.0000   -0.0000   -0.0000   -0.0000    0.0000   -0.0000   -0.0000    0.0000    0.0000    0.0000
      115 RE     8f0        0.0000   -0.0000    0.0000    0.0000   -0.0000    0.0000    0.0000   -0.0000   -0.0000   -0.0000
      116 RE     9f0       -0.0000    0.0000   -0.0000   -0.0000    0.0000   -0.0000   -0.0000    0.0000    0.0000    0.0000
      117 RE    10f0        0.0000   -0.0000    0.0000    0.0000   -0.0000    0.0000    0.0000   -0.0000   -0.0000   -0.0000
      118 RE    11f0       -0.0000    0.0000   -0.0000   -0.0000    0.0000   -0.0000   -0.0000   -0.0000    0.0000    0.0000
      119 RE     4f1+      -0.0000    0.0000   -0.0000   -0.0000   -0.0000    0.0000   -0.0000   -0.0000    0.0000   -0.0000
      120 RE     5f1+       0.0000   -0.0000    0.0000    0.0000    0.0000   -0.0000    0.0000    0.0000   -0.0000    0.0000
      121 RE     6f1+       0.0000    0.0000   -0.0000   -0.0000   -0.0000    0.0000   -0.0000   -0.0000    0.0000   -0.0000
      122 RE     7f1+      -0.0000   -0.0000    0.0000    0.0000    0.0000   -0.0000    0.0000    0.0000   -0.0000    0.0000
      123 RE     8f1+      -0.0000   -0.0000   -0.0000   -0.0000   -0.0000    0.0000   -0.0000   -0.0000    0.0000   -0.0000
      124 RE     9f1+      -0.0000    0.0000    0.0000    0.0000    0.0000    0.0000    0.0000    0.0000   -0.0000    0.0000
      125 RE    10f1+       0.0000   -0.0000   -0.0000   -0.0000   -0.0000   -0.0000   -0.0000   -0.0000    0.0000   -0.0000
      126 RE    11f1+      -0.0000    0.0000    0.0000    0.0000    0.0000    0.0000    0.0000    0.0000   -0.0000   -0.0000
      127 RE     4f2+       0.0000    0.0000   -0.0000   -0.0000    0.0000    0.0000   -0.0000   -0.0000    0.0000    0.0000
      128 RE     5f2+      -0.0000    0.0000    0.0000    0.0000    0.0000    0.0000    0.0000    0.0000   -0.0000   -0.0000
      129 RE     6f2+       0.0000   -0.0000    0.0000    0.0000   -0.0000   -0.0000   -0.0000   -0.0000    0.0000    0.0000
      130 RE     7f2+      -0.0000   -0.0000    0.0000    0.0000    0.0000    0.0000    0.0000    0.0000   -0.0000   -0.0000
      131 RE     8f2+       0.0000    0.0000   -0.0000   -0.0000   -0.0000   -0.0000   -0.0000   -0.0000    0.0000    0.0000
      132 RE     9f2+      -0.0000   -0.0000    0.0000    0.0000   -0.0000   -0.0000    0.0000    0.0000   -0.0000   -0.0000
      133 RE    10f2+       0.0000    0.0000   -0.0000   -0.0000    0.0000    0.0000   -0.0000   -0.0000    0.0000    0.0000
      134 RE    11f2+      -0.0000   -0.0000    0.0000    0.0000    0.0000   -0.0000    0.0000    0.0000   -0.0000   -0.0000
      135 RE     4f3+      -0.0000    0.0000    0.0000    0.0000   -0.0000    0.0000    0.0000   -0.0000   -0.0000   -0.0000
      136 RE     5f3+       0.0000   -0.0000   -0.0000   -0.0000   -0.0000   -0.0000    0.0000   -0.0000    0.0000    0.0000
      137 RE     6f3+      -0.0000    0.0000    0.0000   -0.0000    0.0000    0.0000   -0.0000    0.0000   -0.0000   -0.0000
      138 RE     7f3+      -0.0000   -0.0000   -0.0000   -0.0000    0.0000   -0.0000    0.0000   -0.0000    0.0000    0.0000
      139 RE     8f3+       0.0000   -0.0000    0.0000    0.0000   -0.0000    0.0000   -0.0000    0.0000   -0.0000   -0.0000
      140 RE     9f3+      -0.0000    0.0000   -0.0000   -0.0000    0.0000   -0.0000    0.0000   -0.0000    0.0000    0.0000
      141 RE    10f3+       0.0000   -0.0000    0.0000   -0.0000   -0.0000    0.0000   -0.0000    0.0000   -0.0000   -0.0000
      142 RE    11f3+      -0.0000    0.0000    0.0000   -0.0000    0.0000   -0.0000   -0.0000   -0.0000    0.0000    0.0000
      143 RE     5g4-      -0.0000    0.0000    0.0000   -0.0000    0.0000   -0.0000    0.0000   -0.0000    0.0000   -0.0000
      144 RE     6g4-       0.0000   -0.0000   -0.0000    0.0000   -0.0000    0.0000    0.0000   -0.0000    0.0000    0.0000
      145 RE     7g4-      -0.0000    0.0000    0.0000   -0.0000    0.0000   -0.0000   -0.0000    0.0000   -0.0000   -0.0000
      146 RE     8g4-       0.0000   -0.0000   -0.0000    0.0000   -0.0000    0.0000    0.0000   -0.0000    0.0000    0.0000
      147 RE     5g3-       0.0000    0.0000   -0.0000   -0.0000    0.0000    0.0000    0.0000    0.0000    0.0000    0.0000
      148 RE     6g3-      -0.0000   -0.0000    0.0000   -0.0000   -0.0000   -0.0000    0.0000    0.0000    0.0000   -0.0000
      149 RE     7g3-       0.0000    0.0000    0.0000   -0.0000    0.0000    0.0000   -0.0000    0.0000   -0.0000    0.0000
      150 RE     8g3-      -0.0000   -0.0000   -0.0000    0.0000    0.0000   -0.0000    0.0000   -0.0000   -0.0000   -0.0000
      151 RE     5g2-       0.0000   -0.0000    0.0000   -0.0000   -0.0000   -0.0000    0.0000   -0.0000    0.0000   -0.0000
      152 RE     6g2-       0.0000    0.0000   -0.0000    0.0000   -0.0000    0.0000    0.0000   -0.0000   -0.0000    0.0000
      153 RE     7g2-      -0.0000   -0.0000    0.0000   -0.0000    0.0000   -0.0000   -0.0000    0.0000   -0.0000   -0.0000
      154 RE     8g2-       0.0000    0.0000   -0.0000    0.0000   -0.0000    0.0000    0.0000   -0.0000   -0.0000    0.0000
      155 RE     5g1-       0.0000   -0.0000    0.0000   -0.0000    0.0000    0.0000    0.0000   -0.0000   -0.0000   -0.0000
      156 RE     6g1-      -0.0000   -0.0000   -0.0000    0.0000   -0.0000   -0.0000    0.0000   -0.0000    0.0000    0.0000
      157 RE     7g1-       0.0000    0.0000    0.0000   -0.0000    0.0000    0.0000   -0.0000    0.0000   -0.0000   -0.0000
      158 RE     8g1-      -0.0000   -0.0000   -0.0000    0.0000   -0.0000   -0.0000    0.0000   -0.0000    0.0000    0.0000
      159 RE     5g0       -0.0000    0.0000   -0.0000   -0.0000    0.0000   -0.0000    0.0000    0.0000    0.0000    0.0000
      160 RE     6g0        0.0000   -0.0000    0.0000    0.0000   -0.0000    0.0000   -0.0000    0.0000    0.0000   -0.0000
      161 RE     7g0       -0.0000    0.0000   -0.0000   -0.0000    0.0000   -0.0000    0.0000    0.0000   -0.0000    0.0000
      162 RE     8g0        0.0000   -0.0000    0.0000    0.0000   -0.0000    0.0000    0.0000   -0.0000    0.0000   -0.0000
      163 RE     5g1+      -0.0000    0.0000    0.0000    0.0000    0.0000   -0.0000    0.0000    0.0000    0.0000    0.0000
      164 RE     6g1+       0.0000   -0.0000   -0.0000   -0.0000   -0.0000    0.0000    0.0000    0.0000   -0.0000   -0.0000
      165 RE     7g1+      -0.0000    0.0000    0.0000    0.0000    0.0000   -0.0000   -0.0000   -0.0000    0.0000    0.0000
      166 RE     8g1+       0.0000   -0.0000   -0.0000   -0.0000   -0.0000    0.0000    0.0000    0.0000   -0.0000   -0.0000
      167 RE     5g2+       0.0000    0.0000   -0.0000   -0.0000    0.0000    0.0000   -0.0000   -0.0000    0.0000   -0.0000
      168 RE     6g2+      -0.0000   -0.0000    0.0000    0.0000   -0.0000   -0.0000   -0.0000   -0.0000   -0.0000    0.0000
      169 RE     7g2+       0.0000    0.0000   -0.0000   -0.0000    0.0000    0.0000    0.0000    0.0000    0.0000   -0.0000
      170 RE     8g2+      -0.0000   -0.0000    0.0000    0.0000   -0.0000   -0.0000   -0.0000   -0.0000   -0.0000    0.0000
      171 RE     5g3+       0.0000   -0.0000    0.0000   -0.0000    0.0000    0.0000   -0.0000   -0.0000    0.0000    0.0000
      172 RE     6g3+      -0.0000    0.0000    0.0000    0.0000   -0.0000   -0.0000   -0.0000    0.0000    0.0000   -0.0000
      173 RE     7g3+       0.0000   -0.0000   -0.0000   -0.0000    0.0000    0.0000    0.0000   -0.0000   -0.0000    0.0000
      174 RE     8g3+      -0.0000    0.0000    0.0000    0.0000   -0.0000   -0.0000   -0.0000    0.0000    0.0000   -0.0000
      175 RE     5g4+      -0.0000   -0.0000    0.0000    0.0000   -0.0000   -0.0000    0.0000    0.0000    0.0000    0.0000
      176 RE     6g4+       0.0000    0.0000   -0.0000   -0.0000    0.0000    0.0000    0.0000    0.0000    0.0000   -0.0000
      177 RE     7g4+      -0.0000   -0.0000    0.0000    0.0000   -0.0000   -0.0000   -0.0000   -0.0000   -0.0000    0.0000
      178 RE     8g4+       0.0000    0.0000   -0.0000   -0.0000    0.0000    0.0000    0.0000    0.0000    0.0000   -0.0000
      179 RE     6h5-       0.0000   -0.0000   -0.0000   -0.0000   -0.0000    0.0000    0.0000   -0.0000    0.0000    0.0000
      180 RE     7h5-      -0.0000    0.0000    0.0000   -0.0000    0.0000   -0.0000    0.0000   -0.0000   -0.0000    0.0000
      181 RE     6h4-       0.0000    0.0000    0.0000   -0.0000    0.0000   -0.0000   -0.0000    0.0000   -0.0000    0.0000
      182 RE     7h4-       0.0000   -0.0000    0.0000   -0.0000    0.0000    0.0000   -0.0000    0.0000   -0.0000    0.0000
      183 RE     6h3-      -0.0000    0.0000    0.0000   -0.0000   -0.0000    0.0000   -0.0000    0.0000    0.0000   -0.0000
      184 RE     7h3-       0.0000   -0.0000   -0.0000    0.0000    0.0000   -0.0000    0.0000   -0.0000   -0.0000    0.0000
      185 RE     6h2-      -0.0000   -0.0000    0.0000   -0.0000    0.0000    0.0000   -0.0000    0.0000   -0.0000    0.0000
      186 RE     7h2-       0.0000    0.0000    0.0000   -0.0000    0.0000   -0.0000   -0.0000    0.0000   -0.0000    0.0000
      187 RE     6h1-      -0.0000   -0.0000   -0.0000    0.0000   -0.0000   -0.0000    0.0000   -0.0000    0.0000   -0.0000
      188 RE     7h1-       0.0000    0.0000   -0.0000    0.0000    0.0000    0.0000    0.0000   -0.0000   -0.0000   -0.0000
      189 RE     6h0        0.0000   -0.0000    0.0000   -0.0000   -0.0000    0.0000   -0.0000    0.0000    0.0000   -0.0000
      190 RE     7h0        0.0000   -0.0000   -0.0000    0.0000   -0.0000    0.0000    0.0000   -0.0000    0.0000   -0.0000
      191 RE     6h1+      -0.0000   -0.0000   -0.0000   -0.0000   -0.0000   -0.0000    0.0000    0.0000    0.0000    0.0000
      192 RE     7h1+       0.0000    0.0000   -0.0000   -0.0000    0.0000    0.0000    0.0000    0.0000   -0.0000    0.0000
      193 RE     6h2+       0.0000   -0.0000   -0.0000   -0.0000   -0.0000   -0.0000    0.0000    0.0000    0.0000    0.0000
      194 RE     7h2+      -0.0000    0.0000   -0.0000   -0.0000   -0.0000    0.0000    0.0000    0.0000    0.0000    0.0000
      195 RE     6h3+       0.0000   -0.0000    0.0000    0.0000    0.0000    0.0000    0.0000   -0.0000   -0.0000   -0.0000
      196 RE     7h3+       0.0000   -0.0000    0.0000   -0.0000    0.0000    0.0000   -0.0000    0.0000   -0.0000   -0.0000
      197 RE     6h4+      -0.0000    0.0000    0.0000    0.0000   -0.0000   -0.0000   -0.0000   -0.0000    0.0000   -0.0000
      198 RE     7h4+       0.0000   -0.0000    0.0000    0.0000   -0.0000    0.0000   -0.0000   -0.0000    0.0000   -0.0000
      199 RE     6h5+      -0.0000   -0.0000    0.0000    0.0000   -0.0000   -0.0000   -0.0000   -0.0000    0.0000    0.0000
      200 RE     7h5+       0.0000    0.0000   -0.0000   -0.0000    0.0000    0.0000   -0.0000   -0.0000   -0.0000    0.0000

          Orbital           11        12        13        14        15        16        17        18        19        20    
          Energy          -75.1156  -75.1156  -75.1156  -75.1156  -27.3242  -21.5046  -21.5046  -21.5045  -13.8875  -13.8875
          Occ. No.          2.0000    2.0000    2.0000    2.0000    2.0000    2.0000    2.0000    2.0000    2.0000    2.0000

        1 RE     1s        -0.0000   -0.0000   -0.0000    0.0000   -0.0000    0.0000    0.0000   -0.0000    0.0000   -0.0000
        2 RE     2s         0.0000   -0.0000    0.0000    0.0000   -0.0000   -0.0000   -0.0000    0.0000    0.0000   -0.0000
        3 RE     3s         0.0000   -0.0000    0.0000    0.0000    0.0001   -0.0000    0.0000   -0.0000    0.0000   -0.0000
        4 RE     4s         0.0000    0.0000   -0.0000   -0.0000    1.0000   -0.0000    0.0000   -0.0000    0.0000   -0.0000
        5 RE     5s         0.0000   -0.0000    0.0000    0.0000    0.0001    0.0000   -0.0000    0.0000   -0.0000    0.0000
        6 RE     6s        -0.0000    0.0000   -0.0000   -0.0000   -0.0000    0.0000   -0.0000   -0.0000    0.0000   -0.0000
        7 RE     7s        -0.0000    0.0000   -0.0000    0.0000    0.0001   -0.0000   -0.0000    0.0000    0.0000   -0.0000
        8 RE     8s        -0.0000    0.0000   -0.0000   -0.0000   -0.0000   -0.0000   -0.0000   -0.0000    0.0000   -0.0000
        9 RE     9s         0.0000   -0.0000   -0.0000    0.0000   -0.0001    0.0000    0.0000    0.0000   -0.0000    0.0000
       10 RE    10s         0.0000   -0.0000   -0.0000   -0.0000    0.0001    0.0000    0.0000   -0.0000   -0.0000    0.0000
       11 RE    11s        -0.0000    0.0000   -0.0000   -0.0000   -0.0001   -0.0000    0.0000    0.0000   -0.0000    0.0000
       12 RE     2px       -0.0000   -0.0000    0.0000    0.0000    0.0000    0.0000   -0.0000   -0.0000   -0.0000    0.0000
       13 RE     3px       -0.0000   -0.0000    0.0000   -0.0000   -0.0000   -0.0000    0.0001    0.0000    0.0000   -0.0000
       14 RE     4px       -0.0000    0.0000   -0.0000   -0.0000   -0.0000   -0.0425    0.9991    0.0000   -0.0000    0.0000
       15 RE     5px        0.0000    0.0000   -0.0000   -0.0000    0.0000    0.0000   -0.0006   -0.0000    0.0000   -0.0000
       16 RE     6px       -0.0000   -0.0000    0.0000    0.0000   -0.0000   -0.0000    0.0000    0.0000    0.0000   -0.0000
       17 RE     7px        0.0000   -0.0000    0.0000   -0.0000    0.0000   -0.0000    0.0000    0.0000   -0.0000    0.0000
       18 RE     8px       -0.0000    0.0000   -0.0000    0.0000   -0.0000    0.0000   -0.0000   -0.0000    0.0000   -0.0000
       19 RE     9px        0.0000   -0.0000    0.0000   -0.0000    0.0000    0.0000   -0.0001   -0.0000   -0.0000    0.0000
       20 RE    10px       -0.0000    0.0000   -0.0000   -0.0000   -0.0000   -0.0000    0.0001    0.0000   -0.0000    0.0000
       21 RE    11px        0.0000   -0.0000    0.0000    0.0000    0.0000    0.0000   -0.0001   -0.0000   -0.0000    0.0000
       22 RE     2py       -0.0000   -0.0000   -0.0000    0.0000   -0.0000   -0.0000   -0.0000   -0.0000   -0.0000   -0.0000
       23 RE     3py       -0.0000   -0.0000   -0.0000    0.0000    0.0000    0.0001    0.0000    0.0000    0.0000    0.0000
       24 RE     4py       -0.0000    0.0000    0.0000   -0.0000    0.0000    0.9991    0.0425    0.0000   -0.0000   -0.0000
       25 RE     5py        0.0000    0.0000    0.0000   -0.0000   -0.0000   -0.0006   -0.0000   -0.0000    0.0000    0.0000
       26 RE     6py       -0.0000   -0.0000   -0.0000   -0.0000    0.0000    0.0000    0.0000    0.0000    0.0000    0.0000
       27 RE     7py        0.0000   -0.0000   -0.0000   -0.0000   -0.0000    0.0000    0.0000    0.0000   -0.0000   -0.0000
       28 RE     8py       -0.0000    0.0000    0.0000   -0.0000    0.0000   -0.0000   -0.0000   -0.0000    0.0000    0.0000
       29 RE     9py        0.0000   -0.0000   -0.0000    0.0000   -0.0000   -0.0001   -0.0000   -0.0000   -0.0000   -0.0000
       30 RE    10py       -0.0000    0.0000    0.0000    0.0000    0.0000    0.0001    0.0000    0.0000   -0.0000   -0.0000
       31 RE    11py        0.0000   -0.0000   -0.0000   -0.0000   -0.0000   -0.0001   -0.0000   -0.0000   -0.0000   -0.0000
       32 RE     2pz       -0.0000    0.0000   -0.0000   -0.0000    0.0000    0.0000    0.0000   -0.0000    0.0000    0.0000
       33 RE     3pz       -0.0000    0.0000   -0.0000   -0.0000   -0.0000   -0.0000   -0.0000    0.0001   -0.0000    0.0000
       34 RE     4pz        0.0000   -0.0000    0.0000    0.0000    0.0000   -0.0000   -0.0000    1.0000   -0.0000    0.0000
       35 RE     5pz        0.0000   -0.0000    0.0000    0.0000    0.0000    0.0000    0.0000   -0.0006    0.0000   -0.0000
       36 RE     6pz       -0.0000    0.0000   -0.0000   -0.0000   -0.0000   -0.0000   -0.0000    0.0000    0.0000    0.0000
       37 RE     7pz       -0.0000    0.0000    0.0000   -0.0000    0.0000   -0.0000   -0.0000    0.0000    0.0000   -0.0000
       38 RE     8pz        0.0000   -0.0000    0.0000    0.0000   -0.0000    0.0000    0.0000   -0.0000    0.0000    0.0000
       39 RE     9pz       -0.0000    0.0000   -0.0000   -0.0000    0.0000    0.0000    0.0000   -0.0001    0.0000    0.0000
       40 RE    10pz        0.0000   -0.0000    0.0000    0.0000   -0.0000   -0.0000   -0.0000    0.0001   -0.0000   -0.0000
       41 RE    11pz       -0.0000    0.0000   -0.0000   -0.0000    0.0000    0.0000    0.0000   -0.0001   -0.0000    0.0000
       42 RE     3d2-       0.9950   -0.0024   -0.0105   -0.0000    0.0000    0.0000    0.0000   -0.0000    0.0001    0.0000
       43 RE     4d2-      -0.0001    0.0000    0.0000    0.0000    0.0000    0.0000    0.0000    0.0000    0.9954    0.0957
       44 RE     5d2-       0.0000   -0.0000   -0.0000   -0.0000   -0.0000    0.0000    0.0000    0.0000   -0.0011   -0.0001
       45 RE     6d2-      -0.0000    0.0000    0.0000    0.0000    0.0000   -0.0000   -0.0000    0.0000    0.0002    0.0000
       46 RE     7d2-       0.0000   -0.0000   -0.0000   -0.0000   -0.0000    0.0000    0.0000   -0.0000    0.0006    0.0001
       47 RE     8d2-      -0.0000    0.0000    0.0000    0.0000    0.0000    0.0000    0.0000    0.0000   -0.0005   -0.0001
       48 RE     9d2-       0.0000   -0.0000   -0.0000   -0.0000   -0.0000   -0.0000   -0.0000   -0.0000    0.0001    0.0000
       49 RE    10d2-      -0.0000    0.0000    0.0000    0.0000    0.0000    0.0000    0.0000   -0.0000    0.0002    0.0000
       50 RE    11d2-       0.0000   -0.0000   -0.0000   -0.0000   -0.0000   -0.0000   -0.0000    0.0000    0.0000    0.0000
       51 RE     3d1-       0.0107    0.2206    0.9753   -0.0000    0.0000   -0.0000   -0.0000   -0.0000   -0.0000   -0.0000
       52 RE     4d1-      -0.0000   -0.0000   -0.0001    0.0000    0.0000    0.0000    0.0000    0.0000   -0.0065   -0.0006
       53 RE     5d1-       0.0000    0.0000    0.0000   -0.0000   -0.0000    0.0000    0.0000    0.0000    0.0000    0.0000
       54 RE     6d1-      -0.0000   -0.0000   -0.0000    0.0000    0.0000   -0.0000   -0.0000   -0.0000   -0.0000   -0.0000
       55 RE     7d1-       0.0000    0.0000    0.0000   -0.0000   -0.0000    0.0000    0.0000    0.0000   -0.0000   -0.0000
       56 RE     8d1-      -0.0000   -0.0000   -0.0000    0.0000    0.0000   -0.0000   -0.0000    0.0000    0.0000    0.0000
       57 RE     9d1-       0.0000    0.0000    0.0000   -0.0000   -0.0000   -0.0000   -0.0000    0.0000   -0.0000   -0.0000
       58 RE    10d1-      -0.0000   -0.0000   -0.0000    0.0000    0.0000   -0.0000   -0.0000   -0.0000   -0.0000   -0.0000
       59 RE    11d1-       0.0000    0.0000    0.0000   -0.0000   -0.0000    0.0000    0.0000    0.0000   -0.0000   -0.0000
       60 RE     3d0        0.0000   -0.0000    0.0000    1.0000    0.0000   -0.0000    0.0000   -0.0000    0.0000   -0.0000
       61 RE     4d0       -0.0000    0.0000   -0.0000   -0.0001   -0.0000   -0.0000    0.0000    0.0000    0.0000   -0.0000
       62 RE     5d0        0.0000   -0.0000    0.0000    0.0000   -0.0000   -0.0000   -0.0000    0.0000   -0.0000    0.0000
       63 RE     6d0       -0.0000    0.0000   -0.0000   -0.0000    0.0000    0.0000    0.0000   -0.0000    0.0000   -0.0000
       64 RE     7d0        0.0000   -0.0000    0.0000    0.0000   -0.0000   -0.0000   -0.0000    0.0000    0.0000   -0.0000
       65 RE     8d0       -0.0000    0.0000   -0.0000   -0.0000    0.0000    0.0000    0.0000   -0.0000   -0.0000    0.0000
       66 RE     9d0        0.0000   -0.0000    0.0000    0.0000   -0.0000    0.0000   -0.0000    0.0000    0.0000   -0.0000
       67 RE    10d0       -0.0000    0.0000   -0.0000   -0.0000    0.0000   -0.0000    0.0000   -0.0000    0.0000   -0.0000
       68 RE    11d0        0.0000   -0.0000    0.0000    0.0000   -0.0000    0.0000   -0.0000    0.0000    0.0000   -0.0000
       69 RE     3d1+       0.0011    0.9753   -0.2206    0.0000   -0.0000    0.0000   -0.0000   -0.0000   -0.0000    0.0000
       70 RE     4d1+      -0.0000   -0.0001    0.0000   -0.0000    0.0000   -0.0000    0.0000   -0.0000   -0.0006    0.0065
       71 RE     5d1+       0.0000    0.0000   -0.0000    0.0000    0.0000   -0.0000    0.0000   -0.0000    0.0000   -0.0000
       72 RE     6d1+      -0.0000   -0.0000    0.0000   -0.0000   -0.0000    0.0000   -0.0000    0.0000   -0.0000    0.0000
       73 RE     7d1+       0.0000    0.0000   -0.0000    0.0000    0.0000   -0.0000    0.0000   -0.0000   -0.0000    0.0000
       74 RE     8d1+      -0.0000   -0.0000    0.0000   -0.0000   -0.0000    0.0000   -0.0000   -0.0000    0.0000   -0.0000
       75 RE     9d1+       0.0000    0.0000   -0.0000    0.0000    0.0000    0.0000   -0.0000    0.0000   -0.0000    0.0000
       76 RE    10d1+      -0.0000   -0.0000    0.0000   -0.0000   -0.0000    0.0000   -0.0000   -0.0000   -0.0000    0.0000
       77 RE    11d1+       0.0000    0.0000   -0.0000    0.0000    0.0000   -0.0000    0.0000   -0.0000   -0.0000    0.0000
       78 RE     3d2+      -0.0988    0.0105   -0.0024    0.0000    0.0000    0.0000   -0.0000   -0.0000   -0.0000    0.0001
       79 RE     4d2+       0.0000   -0.0000    0.0000   -0.0000    0.0000    0.0000   -0.0000   -0.0000   -0.0957    0.9954
       80 RE     5d2+      -0.0000    0.0000   -0.0000    0.0000   -0.0000    0.0000   -0.0000    0.0000    0.0001   -0.0011
       81 RE     6d2+       0.0000   -0.0000    0.0000   -0.0000    0.0000   -0.0000    0.0000   -0.0000   -0.0000    0.0002
       82 RE     7d2+      -0.0000    0.0000   -0.0000    0.0000   -0.0000    0.0000   -0.0000    0.0000   -0.0001    0.0006
       83 RE     8d2+       0.0000   -0.0000    0.0000   -0.0000    0.0000    0.0000   -0.0000   -0.0000    0.0001   -0.0005
       84 RE     9d2+      -0.0000    0.0000   -0.0000    0.0000   -0.0000   -0.0000    0.0000    0.0000   -0.0000    0.0001
       85 RE    10d2+       0.0000   -0.0000    0.0000   -0.0000    0.0000    0.0000   -0.0000   -0.0000   -0.0000    0.0002
       86 RE    11d2+      -0.0000    0.0000   -0.0000    0.0000   -0.0000   -0.0000    0.0000    0.0000   -0.0000    0.0000
       87 RE     4f3-      -0.0000   -0.0000    0.0000    0.0000   -0.0000    0.0000    0.0000   -0.0000   -0.0000   -0.0000
       88 RE     5f3-       0.0000   -0.0000   -0.0000   -0.0000    0.0000    0.0000   -0.0000    0.0000   -0.0000   -0.0000
       89 RE     6f3-      -0.0000    0.0000    0.0000    0.0000   -0.0000   -0.0000    0.0000   -0.0000    0.0000    0.0000
       90 RE     7f3-       0.0000   -0.0000   -0.0000   -0.0000    0.0000    0.0000   -0.0000    0.0000    0.0000    0.0000
       91 RE     8f3-      -0.0000    0.0000   -0.0000   -0.0000   -0.0000   -0.0000    0.0000   -0.0000   -0.0000   -0.0000
       92 RE     9f3-       0.0000   -0.0000   -0.0000   -0.0000    0.0000    0.0000   -0.0000    0.0000   -0.0000   -0.0000
       93 RE    10f3-      -0.0000    0.0000    0.0000    0.0000   -0.0000    0.0000    0.0000   -0.0000    0.0000    0.0000
       94 RE    11f3-       0.0000   -0.0000   -0.0000   -0.0000    0.0000   -0.0000   -0.0000    0.0000   -0.0000   -0.0000
       95 RE     4f2-       0.0000   -0.0000   -0.0000   -0.0000    0.0000   -0.0000   -0.0000    0.0000    0.0000    0.0000
       96 RE     5f2-      -0.0000    0.0000    0.0000    0.0000   -0.0000   -0.0000   -0.0000   -0.0000    0.0000    0.0000
       97 RE     6f2-       0.0000   -0.0000   -0.0000   -0.0000    0.0000    0.0000    0.0000    0.0000   -0.0000   -0.0000
       98 RE     7f2-      -0.0000    0.0000    0.0000    0.0000   -0.0000    0.0000    0.0000   -0.0000   -0.0000   -0.0000
       99 RE     8f2-       0.0000   -0.0000   -0.0000   -0.0000    0.0000   -0.0000   -0.0000    0.0000    0.0000    0.0000
      100 RE     9f2-      -0.0000    0.0000    0.0000    0.0000   -0.0000   -0.0000   -0.0000   -0.0000    0.0000    0.0000
      101 RE    10f2-       0.0000   -0.0000   -0.0000   -0.0000    0.0000    0.0000    0.0000   -0.0000   -0.0000   -0.0000
      102 RE    11f2-      -0.0000   -0.0000   -0.0000    0.0000   -0.0000    0.0000    0.0000   -0.0000    0.0000    0.0000
      103 RE     4f1-       0.0000    0.0000    0.0000   -0.0000    0.0000   -0.0000   -0.0000   -0.0000   -0.0000   -0.0000
      104 RE     5f1-      -0.0000   -0.0000   -0.0000    0.0000   -0.0000   -0.0000   -0.0000   -0.0000   -0.0000   -0.0000
      105 RE     6f1-       0.0000    0.0000    0.0000   -0.0000    0.0000    0.0000    0.0000    0.0000    0.0000    0.0000
      106 RE     7f1-      -0.0000   -0.0000   -0.0000    0.0000   -0.0000   -0.0000   -0.0000   -0.0000    0.0000    0.0000
      107 RE     8f1-       0.0000    0.0000    0.0000   -0.0000    0.0000    0.0000    0.0000    0.0000   -0.0000   -0.0000
      108 RE     9f1-      -0.0000   -0.0000   -0.0000    0.0000   -0.0000    0.0000    0.0000    0.0000   -0.0000   -0.0000
      109 RE    10f1-       0.0000    0.0000    0.0000   -0.0000    0.0000    0.0000    0.0000    0.0000    0.0000    0.0000
      110 RE    11f1-       0.0000   -0.0000   -0.0000    0.0000   -0.0000   -0.0000   -0.0000   -0.0000    0.0000    0.0000
      111 RE     4f0        0.0000   -0.0000    0.0000    0.0000   -0.0000    0.0000    0.0000   -0.0000    0.0000   -0.0000
      112 RE     5f0       -0.0000    0.0000   -0.0000   -0.0000   -0.0000    0.0000   -0.0000   -0.0000    0.0000   -0.0000
      113 RE     6f0        0.0000   -0.0000    0.0000    0.0000    0.0000   -0.0000   -0.0000    0.0000   -0.0000    0.0000
      114 RE     7f0       -0.0000    0.0000   -0.0000   -0.0000    0.0000    0.0000    0.0000   -0.0000    0.0000    0.0000
      115 RE     8f0        0.0000   -0.0000    0.0000    0.0000   -0.0000   -0.0000   -0.0000    0.0000   -0.0000   -0.0000
      116 RE     9f0       -0.0000    0.0000   -0.0000   -0.0000   -0.0000    0.0000    0.0000    0.0000    0.0000   -0.0000
      117 RE    10f0        0.0000   -0.0000    0.0000    0.0000    0.0000   -0.0000   -0.0000    0.0000   -0.0000    0.0000
      118 RE    11f0       -0.0000    0.0000   -0.0000   -0.0000   -0.0000    0.0000    0.0000   -0.0000   -0.0000    0.0000
      119 RE     4f1+       0.0000    0.0000   -0.0000    0.0000    0.0000    0.0000   -0.0000    0.0000   -0.0000    0.0000
      120 RE     5f1+      -0.0000   -0.0000    0.0000   -0.0000   -0.0000    0.0000   -0.0000    0.0000   -0.0000    0.0000
      121 RE     6f1+       0.0000    0.0000   -0.0000    0.0000    0.0000   -0.0000    0.0000   -0.0000    0.0000   -0.0000
      122 RE     7f1+      -0.0000   -0.0000    0.0000   -0.0000    0.0000    0.0000   -0.0000    0.0000    0.0000   -0.0000
      123 RE     8f1+       0.0000    0.0000   -0.0000    0.0000   -0.0000   -0.0000    0.0000   -0.0000   -0.0000    0.0000
      124 RE     9f1+      -0.0000   -0.0000    0.0000   -0.0000   -0.0000   -0.0000    0.0000    0.0000   -0.0000    0.0000
      125 RE    10f1+       0.0000    0.0000   -0.0000    0.0000   -0.0000   -0.0000    0.0000   -0.0000    0.0000   -0.0000
      126 RE    11f1+       0.0000   -0.0000    0.0000   -0.0000   -0.0000    0.0000   -0.0000    0.0000    0.0000   -0.0000
      127 RE     4f2+      -0.0000    0.0000   -0.0000    0.0000    0.0000   -0.0000    0.0000    0.0000   -0.0000    0.0000
      128 RE     5f2+       0.0000   -0.0000    0.0000   -0.0000    0.0000   -0.0000    0.0000    0.0000   -0.0000    0.0000
      129 RE     6f2+      -0.0000    0.0000   -0.0000    0.0000    0.0000    0.0000   -0.0000   -0.0000    0.0000   -0.0000
      130 RE     7f2+       0.0000   -0.0000    0.0000   -0.0000   -0.0000    0.0000   -0.0000    0.0000    0.0000   -0.0000
      131 RE     8f2+      -0.0000    0.0000   -0.0000    0.0000    0.0000   -0.0000    0.0000    0.0000   -0.0000    0.0000
      132 RE     9f2+       0.0000   -0.0000    0.0000   -0.0000   -0.0000   -0.0000    0.0000   -0.0000   -0.0000    0.0000
      133 RE    10f2+      -0.0000    0.0000   -0.0000    0.0000    0.0000    0.0000   -0.0000    0.0000    0.0000   -0.0000
      134 RE    11f2+       0.0000    0.0000   -0.0000   -0.0000   -0.0000    0.0000   -0.0000    0.0000   -0.0000    0.0000
      135 RE     4f3+       0.0000   -0.0000    0.0000    0.0000   -0.0000   -0.0000    0.0000    0.0000    0.0000   -0.0000
      136 RE     5f3+      -0.0000   -0.0000    0.0000    0.0000   -0.0000    0.0000    0.0000    0.0000    0.0000   -0.0000
      137 RE     6f3+       0.0000   -0.0000   -0.0000   -0.0000    0.0000    0.0000   -0.0000   -0.0000   -0.0000    0.0000
      138 RE     7f3+      -0.0000    0.0000   -0.0000    0.0000    0.0000    0.0000    0.0000   -0.0000   -0.0000    0.0000
      139 RE     8f3+       0.0000    0.0000    0.0000   -0.0000   -0.0000   -0.0000    0.0000    0.0000    0.0000   -0.0000
      140 RE     9f3+      -0.0000   -0.0000   -0.0000    0.0000   -0.0000    0.0000   -0.0000    0.0000    0.0000   -0.0000
      141 RE    10f3+       0.0000    0.0000    0.0000   -0.0000    0.0000    0.0000    0.0000   -0.0000   -0.0000    0.0000
      142 RE    11f3+      -0.0000   -0.0000   -0.0000   -0.0000   -0.0000   -0.0000    0.0000   -0.0000   -0.0000   -0.0000
      143 RE     5g4-      -0.0000    0.0000    0.0000   -0.0000    0.0000   -0.0000   -0.0000   -0.0000    0.0000    0.0000
      144 RE     6g4-       0.0000    0.0000    0.0000    0.0000   -0.0000   -0.0000   -0.0000   -0.0000    0.0000    0.0000
      145 RE     7g4-      -0.0000   -0.0000   -0.0000   -0.0000    0.0000    0.0000    0.0000    0.0000    0.0000    0.0000
      146 RE     8g4-       0.0000    0.0000    0.0000    0.0000   -0.0000    0.0000    0.0000    0.0000   -0.0000   -0.0000
      147 RE     5g3-       0.0000    0.0000    0.0000    0.0000    0.0000   -0.0000    0.0000   -0.0000    0.0000    0.0000
      148 RE     6g3-      -0.0000    0.0000   -0.0000   -0.0000   -0.0000    0.0000   -0.0000   -0.0000    0.0000    0.0000
      149 RE     7g3-       0.0000   -0.0000    0.0000    0.0000    0.0000   -0.0000    0.0000    0.0000   -0.0000   -0.0000
      150 RE     8g3-      -0.0000   -0.0000   -0.0000   -0.0000   -0.0000   -0.0000    0.0000   -0.0000    0.0000   -0.0000
      151 RE     5g2-      -0.0000    0.0000    0.0000    0.0000   -0.0000   -0.0000   -0.0000   -0.0000   -0.0000   -0.0000
      152 RE     6g2-       0.0000   -0.0000   -0.0000   -0.0000    0.0000   -0.0000   -0.0000   -0.0000   -0.0000   -0.0000
      153 RE     7g2-      -0.0000    0.0000    0.0000    0.0000   -0.0000    0.0000    0.0000    0.0000    0.0000    0.0000
      154 RE     8g2-       0.0000   -0.0000   -0.0000   -0.0000    0.0000    0.0000    0.0000   -0.0000    0.0000    0.0000
      155 RE     5g1-      -0.0000   -0.0000   -0.0000    0.0000    0.0000   -0.0000   -0.0000   -0.0000    0.0000    0.0000
      156 RE     6g1-       0.0000    0.0000    0.0000   -0.0000   -0.0000   -0.0000   -0.0000   -0.0000    0.0000    0.0000
      157 RE     7g1-      -0.0000   -0.0000   -0.0000    0.0000    0.0000    0.0000    0.0000    0.0000   -0.0000   -0.0000
      158 RE     8g1-       0.0000    0.0000    0.0000   -0.0000   -0.0000    0.0000    0.0000   -0.0000   -0.0000   -0.0000
      159 RE     5g0       -0.0000    0.0000   -0.0000   -0.0000   -0.0000    0.0000   -0.0000   -0.0000   -0.0000    0.0000
      160 RE     6g0        0.0000   -0.0000    0.0000    0.0000   -0.0000    0.0000    0.0000   -0.0000   -0.0000    0.0000
      161 RE     7g0       -0.0000    0.0000   -0.0000   -0.0000    0.0000   -0.0000    0.0000    0.0000    0.0000   -0.0000
      162 RE     8g0        0.0000   -0.0000   -0.0000    0.0000    0.0000   -0.0000   -0.0000    0.0000    0.0000    0.0000
      163 RE     5g1+      -0.0000   -0.0000    0.0000   -0.0000   -0.0000    0.0000   -0.0000   -0.0000    0.0000   -0.0000
      164 RE     6g1+       0.0000    0.0000   -0.0000    0.0000    0.0000    0.0000   -0.0000   -0.0000    0.0000   -0.0000
      165 RE     7g1+      -0.0000   -0.0000    0.0000   -0.0000   -0.0000   -0.0000    0.0000    0.0000   -0.0000    0.0000
      166 RE     8g1+       0.0000    0.0000   -0.0000    0.0000    0.0000   -0.0000    0.0000    0.0000   -0.0000    0.0000
      167 RE     5g2+       0.0000   -0.0000    0.0000   -0.0000    0.0000   -0.0000    0.0000   -0.0000    0.0000   -0.0000
      168 RE     6g2+      -0.0000    0.0000   -0.0000    0.0000   -0.0000   -0.0000    0.0000    0.0000    0.0000   -0.0000
      169 RE     7g2+       0.0000   -0.0000    0.0000   -0.0000    0.0000    0.0000   -0.0000   -0.0000   -0.0000    0.0000
      170 RE     8g2+      -0.0000    0.0000   -0.0000    0.0000   -0.0000    0.0000   -0.0000    0.0000   -0.0000    0.0000
      171 RE     5g3+      -0.0000   -0.0000   -0.0000   -0.0000    0.0000    0.0000    0.0000   -0.0000   -0.0000    0.0000
      172 RE     6g3+       0.0000    0.0000    0.0000   -0.0000    0.0000    0.0000    0.0000   -0.0000   -0.0000    0.0000
      173 RE     7g3+      -0.0000   -0.0000   -0.0000    0.0000   -0.0000   -0.0000   -0.0000    0.0000    0.0000   -0.0000
      174 RE     8g3+       0.0000    0.0000    0.0000   -0.0000   -0.0000   -0.0000   -0.0000    0.0000   -0.0000   -0.0000
      175 RE     5g4+      -0.0000    0.0000   -0.0000    0.0000   -0.0000    0.0000   -0.0000    0.0000    0.0000   -0.0000
      176 RE     6g4+       0.0000    0.0000   -0.0000   -0.0000    0.0000    0.0000   -0.0000   -0.0000    0.0000   -0.0000
      177 RE     7g4+      -0.0000   -0.0000    0.0000    0.0000   -0.0000   -0.0000    0.0000    0.0000    0.0000   -0.0000
      178 RE     8g4+       0.0000    0.0000   -0.0000   -0.0000    0.0000   -0.0000    0.0000   -0.0000   -0.0000    0.0000
      179 RE     6h5-       0.0000   -0.0000   -0.0000    0.0000   -0.0000    0.0000    0.0000    0.0000   -0.0000   -0.0000
      180 RE     7h5-       0.0000   -0.0000   -0.0000   -0.0000    0.0000    0.0000    0.0000   -0.0000   -0.0000   -0.0000
      181 RE     6h4-       0.0000    0.0000    0.0000   -0.0000    0.0000    0.0000    0.0000    0.0000    0.0000    0.0000
      182 RE     7h4-       0.0000    0.0000    0.0000   -0.0000    0.0000    0.0000    0.0000   -0.0000    0.0000    0.0000
      183 RE     6h3-      -0.0000    0.0000   -0.0000    0.0000   -0.0000   -0.0000    0.0000    0.0000    0.0000   -0.0000
      184 RE     7h3-       0.0000    0.0000    0.0000   -0.0000    0.0000   -0.0000   -0.0000   -0.0000   -0.0000    0.0000
      185 RE     6h2-       0.0000    0.0000    0.0000   -0.0000    0.0000    0.0000    0.0000    0.0000   -0.0000   -0.0000
      186 RE     7h2-       0.0000    0.0000    0.0000   -0.0000   -0.0000    0.0000    0.0000   -0.0000   -0.0000   -0.0000
      187 RE     6h1-      -0.0000    0.0000    0.0000    0.0000   -0.0000   -0.0000   -0.0000    0.0000    0.0000    0.0000
      188 RE     7h1-      -0.0000    0.0000    0.0000   -0.0000    0.0000   -0.0000   -0.0000   -0.0000    0.0000    0.0000
      189 RE     6h0       -0.0000    0.0000   -0.0000    0.0000   -0.0000   -0.0000    0.0000   -0.0000   -0.0000    0.0000
      190 RE     7h0        0.0000    0.0000    0.0000    0.0000   -0.0000    0.0000   -0.0000   -0.0000   -0.0000    0.0000
      191 RE     6h1+      -0.0000    0.0000   -0.0000    0.0000   -0.0000    0.0000   -0.0000    0.0000    0.0000   -0.0000
      192 RE     7h1+      -0.0000    0.0000   -0.0000   -0.0000    0.0000    0.0000   -0.0000   -0.0000    0.0000   -0.0000
      193 RE     6h2+      -0.0000   -0.0000    0.0000    0.0000   -0.0000    0.0000   -0.0000   -0.0000    0.0000   -0.0000
      194 RE     7h2+      -0.0000   -0.0000    0.0000    0.0000    0.0000    0.0000   -0.0000   -0.0000    0.0000   -0.0000
      195 RE     6h3+       0.0000    0.0000    0.0000    0.0000   -0.0000    0.0000   -0.0000    0.0000   -0.0000    0.0000
      196 RE     7h3+      -0.0000    0.0000   -0.0000    0.0000   -0.0000   -0.0000    0.0000    0.0000    0.0000   -0.0000
      197 RE     6h4+       0.0000    0.0000   -0.0000    0.0000    0.0000   -0.0000    0.0000    0.0000    0.0000   -0.0000
      198 RE     7h4+       0.0000    0.0000   -0.0000    0.0000   -0.0000   -0.0000    0.0000   -0.0000    0.0000   -0.0000
      199 RE     6h5+      -0.0000    0.0000   -0.0000    0.0000   -0.0000    0.0000   -0.0000    0.0000    0.0000   -0.0000
      200 RE     7h5+      -0.0000    0.0000   -0.0000   -0.0000    0.0000    0.0000   -0.0000   -0.0000    0.0000   -0.0000

          Orbital           21        22        23        24        25        26        27        28        29        30    
          Energy          -13.8875  -13.8875  -13.8875   -6.7705   -5.4130   -5.4130   -5.4129   -5.4129   -5.4129   -5.4129
          Occ. No.          2.0000    2.0000    2.0000    2.0000    2.0000    2.0000    2.0000    2.0000    2.0000    2.0000

        1 RE     1s         0.0000    0.0000   -0.0000    0.0000    0.0000   -0.0000   -0.0000    0.0000   -0.0000   -0.0000
        2 RE     2s         0.0000    0.0000   -0.0000    0.0000   -0.0000    0.0000   -0.0000   -0.0000    0.0000   -0.0000
        3 RE     3s         0.0000   -0.0000    0.0000   -0.0000   -0.0000    0.0000    0.0000   -0.0000    0.0000   -0.0000
        4 RE     4s        -0.0000   -0.0000    0.0000   -0.0001    0.0000   -0.0000   -0.0000    0.0000   -0.0000    0.0000
        5 RE     5s         0.0000    0.0000   -0.0000    0.9990    0.0000   -0.0000   -0.0000    0.0000   -0.0000    0.0000
        6 RE     6s         0.0000    0.0000    0.0000   -0.0282   -0.0000    0.0000    0.0000   -0.0000    0.0000   -0.0000
        7 RE     7s         0.0000    0.0000   -0.0000    0.0309    0.0000   -0.0000   -0.0000    0.0000   -0.0000    0.0000
        8 RE     8s         0.0000    0.0000    0.0000   -0.0171   -0.0000    0.0000    0.0000   -0.0000    0.0000   -0.0000
        9 RE     9s        -0.0000   -0.0000    0.0000   -0.0062   -0.0000    0.0000    0.0000   -0.0000    0.0000   -0.0000
       10 RE    10s        -0.0000   -0.0000    0.0000    0.0010    0.0000   -0.0000   -0.0000    0.0000   -0.0000    0.0000
       11 RE    11s        -0.0000   -0.0000    0.0000    0.0010    0.0000   -0.0000   -0.0000    0.0000   -0.0000    0.0000
       12 RE     2px       -0.0000   -0.0000   -0.0000   -0.0000   -0.0000    0.0000    0.0000   -0.0000    0.0000   -0.0000
       13 RE     3px       -0.0000   -0.0000   -0.0000    0.0000   -0.0000   -0.0000    0.0000   -0.0000   -0.0000    0.0000
       14 RE     4px       -0.0000   -0.0000   -0.0000    0.0000   -0.0000    0.0000   -0.0000    0.0000   -0.0000    0.0000
       15 RE     5px        0.0000    0.0000    0.0000   -0.0000    0.0000    0.0000    0.0000   -0.0000    0.0001   -0.0001
       16 RE     6px       -0.0000   -0.0000   -0.0000   -0.0000   -0.0000    0.0000    0.0000   -0.0000   -0.0000    0.0000
       17 RE     7px        0.0000    0.0000    0.0000    0.0000    0.0000    0.0000   -0.0000    0.0000    0.0000   -0.0000
       18 RE     8px        0.0000    0.0000   -0.0000   -0.0000    0.0000    0.0000    0.0000   -0.0000    0.0000   -0.0000
       19 RE     9px       -0.0000   -0.0000    0.0000    0.0000   -0.0000    0.0000    0.0000   -0.0000   -0.0000    0.0000
       20 RE    10px       -0.0000   -0.0000    0.0000    0.0000   -0.0000   -0.0000    0.0000   -0.0000   -0.0000    0.0000
       21 RE    11px        0.0000    0.0000   -0.0000    0.0000   -0.0000   -0.0000    0.0000   -0.0000   -0.0000    0.0000
       22 RE     2py       -0.0000    0.0000   -0.0000   -0.0000   -0.0000    0.0000   -0.0000   -0.0000   -0.0000   -0.0000
       23 RE     3py       -0.0000    0.0000   -0.0000    0.0000   -0.0000   -0.0000   -0.0000   -0.0000    0.0000    0.0000
       24 RE     4py       -0.0000    0.0000    0.0000   -0.0000    0.0000   -0.0000    0.0000    0.0000    0.0000    0.0000
       25 RE     5py        0.0000   -0.0000   -0.0000    0.0000   -0.0000    0.0000   -0.0000   -0.0000   -0.0001   -0.0001
       26 RE     6py       -0.0000    0.0000    0.0000   -0.0000   -0.0000   -0.0000   -0.0000   -0.0000    0.0000    0.0000
       27 RE     7py        0.0000   -0.0000   -0.0000    0.0000   -0.0000    0.0000    0.0000    0.0000   -0.0000   -0.0000
       28 RE     8py        0.0000   -0.0000    0.0000    0.0000   -0.0000    0.0000   -0.0000   -0.0000   -0.0000   -0.0000
       29 RE     9py       -0.0000    0.0000   -0.0000    0.0000   -0.0000    0.0000   -0.0000   -0.0000    0.0000    0.0000
       30 RE    10py       -0.0000    0.0000    0.0000    0.0000   -0.0000    0.0000   -0.0000   -0.0000    0.0000    0.0000
       31 RE    11py        0.0000   -0.0000    0.0000   -0.0000    0.0000    0.0000   -0.0000   -0.0000    0.0000    0.0000
       32 RE     2pz       -0.0000    0.0000   -0.0000   -0.0000    0.0000   -0.0000    0.0000    0.0000   -0.0000    0.0000
       33 RE     3pz       -0.0000    0.0000   -0.0000    0.0000   -0.0000    0.0000   -0.0000    0.0000    0.0000    0.0000
       34 RE     4pz       -0.0000    0.0000   -0.0000   -0.0000   -0.0000    0.0000   -0.0000    0.0000    0.0000    0.0000
       35 RE     5pz        0.0000   -0.0000    0.0000    0.0008    0.0000   -0.0000    0.0000   -0.0000   -0.0000   -0.0000
       36 RE     6pz        0.0000    0.0000   -0.0000    0.0000   -0.0000    0.0000   -0.0000    0.0000    0.0000    0.0000
       37 RE     7pz       -0.0000    0.0000    0.0000   -0.0000    0.0000   -0.0000    0.0000   -0.0000   -0.0000   -0.0000
       38 RE     8pz       -0.0000   -0.0000    0.0000    0.0000    0.0000   -0.0000    0.0000   -0.0000   -0.0000   -0.0000
       39 RE     9pz       -0.0000    0.0000   -0.0000    0.0000    0.0000   -0.0000   -0.0000    0.0000    0.0000   -0.0000
       40 RE    10pz        0.0000    0.0000   -0.0000   -0.0000    0.0000   -0.0000   -0.0000    0.0000    0.0000    0.0000
       41 RE    11pz        0.0000   -0.0000    0.0000   -0.0000    0.0000   -0.0000   -0.0000    0.0000   -0.0000    0.0000
       42 RE     3d2-       0.0000   -0.0000   -0.0000   -0.0000   -0.0000    0.0000   -0.0000   -0.0000   -0.0000   -0.0000
       43 RE     4d2-       0.0044   -0.0048   -0.0000    0.0000   -0.0000    0.0000   -0.0000   -0.0000   -0.0000   -0.0000
       44 RE     5d2-      -0.0000    0.0000    0.0000    0.0000    0.0000   -0.0000    0.0001    0.0001   -0.0000   -0.0000
       45 RE     6d2-       0.0000   -0.0000   -0.0000    0.0000   -0.0000    0.0000   -0.0000   -0.0001    0.0000    0.0000
       46 RE     7d2-       0.0000   -0.0000   -0.0000    0.0000    0.0000   -0.0000    0.0000    0.0000    0.0000    0.0000
       47 RE     8d2-      -0.0000    0.0000    0.0000   -0.0000    0.0000   -0.0000    0.0000    0.0000   -0.0000   -0.0000
       48 RE     9d2-       0.0000   -0.0000   -0.0000   -0.0000    0.0000   -0.0000    0.0000    0.0000   -0.0000   -0.0000
       49 RE    10d2-       0.0000   -0.0000   -0.0000   -0.0000    0.0000    0.0000   -0.0000   -0.0000   -0.0000   -0.0000
       50 RE    11d2-       0.0000   -0.0000    0.0000    0.0000   -0.0000    0.0000   -0.0000   -0.0000   -0.0000   -0.0000
       51 RE     3d1-       0.0000   -0.0000   -0.0000    0.0000   -0.0000    0.0000    0.0000    0.0000   -0.0000   -0.0000
       52 RE     4d1-       0.6694   -0.7429   -0.0000   -0.0000   -0.0000    0.0000    0.0000    0.0000   -0.0000   -0.0000
       53 RE     5d1-      -0.0007    0.0008    0.0000   -0.0000    0.0000   -0.0000    0.0000    0.0000    0.0001    0.0001
       54 RE     6d1-       0.0001   -0.0001   -0.0000    0.0000   -0.0000    0.0000   -0.0000   -0.0000   -0.0001   -0.0000
       55 RE     7d1-       0.0004   -0.0004   -0.0000   -0.0000    0.0000   -0.0000   -0.0000   -0.0000    0.0000    0.0000
       56 RE     8d1-      -0.0004    0.0004    0.0000    0.0000    0.0000   -0.0000    0.0000    0.0000    0.0000    0.0000
       57 RE     9d1-       0.0000   -0.0000   -0.0000   -0.0000    0.0000   -0.0000    0.0000    0.0000    0.0000    0.0000
       58 RE    10d1-       0.0001   -0.0001   -0.0000    0.0000    0.0000    0.0000    0.0000    0.0000   -0.0000   -0.0000
       59 RE    11d1-       0.0000   -0.0000   -0.0000   -0.0000    0.0000    0.0000    0.0000    0.0000   -0.0000   -0.0000
       60 RE     3d0        0.0000    0.0000    0.0001   -0.0000    0.0000   -0.0000    0.0000   -0.0000    0.0000   -0.0000
       61 RE     4d0        0.0000    0.0000    1.0000    0.0000    0.0000   -0.0000    0.0000   -0.0000    0.0000   -0.0000
       62 RE     5d0       -0.0000   -0.0000   -0.0011   -0.0001    0.0000   -0.0000   -0.0000    0.0000   -0.0000    0.0000
       63 RE     6d0        0.0000    0.0000    0.0002    0.0000   -0.0000    0.0000    0.0000   -0.0000    0.0000   -0.0000
       64 RE     7d0        0.0000    0.0000    0.0006    0.0000   -0.0000    0.0000   -0.0000    0.0000   -0.0000    0.0000
       65 RE     8d0       -0.0000   -0.0000   -0.0005   -0.0000    0.0000   -0.0000   -0.0000    0.0000   -0.0000    0.0000
       66 RE     9d0        0.0000    0.0000    0.0001   -0.0000    0.0000   -0.0000   -0.0000    0.0000   -0.0000    0.0000
       67 RE    10d0        0.0000    0.0000    0.0002    0.0000    0.0000   -0.0000    0.0000   -0.0000   -0.0000   -0.0000
       68 RE    11d0        0.0000    0.0000    0.0000    0.0000    0.0000   -0.0000    0.0000   -0.0000   -0.0000   -0.0000
       69 RE     3d1+       0.0000    0.0000   -0.0000    0.0000    0.0000   -0.0000   -0.0000    0.0000    0.0000   -0.0000
       70 RE     4d1+       0.7429    0.6694   -0.0000   -0.0000    0.0000   -0.0000   -0.0000    0.0000    0.0000   -0.0000
       71 RE     5d1+      -0.0008   -0.0007    0.0000    0.0000   -0.0000    0.0000   -0.0000    0.0000   -0.0001    0.0001
       72 RE     6d1+       0.0001    0.0001   -0.0000   -0.0000    0.0000   -0.0000    0.0000   -0.0000    0.0000   -0.0001
       73 RE     7d1+       0.0004    0.0004   -0.0000   -0.0000   -0.0000    0.0000    0.0000   -0.0000   -0.0000    0.0000
       74 RE     8d1+      -0.0004   -0.0004    0.0000    0.0000   -0.0000    0.0000   -0.0000    0.0000   -0.0000    0.0000
       75 RE     9d1+       0.0000    0.0000   -0.0000    0.0000   -0.0000    0.0000   -0.0000    0.0000   -0.0000    0.0000
       76 RE    10d1+       0.0001    0.0001   -0.0000   -0.0000   -0.0000   -0.0000   -0.0000    0.0000    0.0000   -0.0000
       77 RE    11d1+       0.0000    0.0000   -0.0000   -0.0000    0.0000   -0.0000   -0.0000    0.0000    0.0000   -0.0000
       78 RE     3d2+      -0.0000   -0.0000    0.0000    0.0000    0.0000    0.0000   -0.0000    0.0000   -0.0000    0.0000
       79 RE     4d2+      -0.0048   -0.0044    0.0000   -0.0000    0.0000   -0.0000   -0.0000    0.0000   -0.0000    0.0000
       80 RE     5d2+       0.0000    0.0000   -0.0000   -0.0000   -0.0000    0.0000    0.0001   -0.0001   -0.0000    0.0000
       81 RE     6d2+      -0.0000   -0.0000    0.0000    0.0000    0.0000   -0.0000   -0.0001    0.0000    0.0000   -0.0000
       82 RE     7d2+      -0.0000   -0.0000    0.0000   -0.0000   -0.0000    0.0000    0.0000   -0.0000    0.0000   -0.0000
       83 RE     8d2+       0.0000    0.0000   -0.0000    0.0000   -0.0000    0.0000    0.0000   -0.0000   -0.0000    0.0000
       84 RE     9d2+      -0.0000   -0.0000    0.0000   -0.0000    0.0000    0.0000    0.0000   -0.0000   -0.0000    0.0000
       85 RE    10d2+      -0.0000   -0.0000    0.0000    0.0000    0.0000    0.0000   -0.0000    0.0000   -0.0000    0.0000
       86 RE    11d2+      -0.0000   -0.0000    0.0000   -0.0000    0.0000    0.0000   -0.0000    0.0000   -0.0000    0.0000
       87 RE     4f3-       0.0000    0.0000   -0.0000   -0.0000    0.0001    0.9998   -0.0000   -0.0000    0.0000    0.0000
       88 RE     5f3-      -0.0000   -0.0000    0.0000   -0.0000   -0.0000   -0.0178    0.0000    0.0000   -0.0000   -0.0000
       89 RE     6f3-       0.0000   -0.0000    0.0000    0.0000   -0.0000   -0.0066    0.0000    0.0000   -0.0000   -0.0000
       90 RE     7f3-      -0.0000    0.0000    0.0000   -0.0000    0.0000    0.0024   -0.0000   -0.0000    0.0000    0.0000
       91 RE     8f3-       0.0000    0.0000    0.0000    0.0000    0.0000    0.0023   -0.0000   -0.0000    0.0000    0.0000
       92 RE     9f3-       0.0000    0.0000   -0.0000   -0.0000    0.0000    0.0002   -0.0000   -0.0000    0.0000    0.0000
       93 RE    10f3-       0.0000   -0.0000    0.0000    0.0000   -0.0000   -0.0002    0.0000    0.0000   -0.0000   -0.0000
       94 RE    11f3-       0.0000   -0.0000   -0.0000   -0.0000   -0.0000   -0.0001    0.0000    0.0000   -0.0000   -0.0000
       95 RE     4f2-       0.0000   -0.0000   -0.0000    0.0000    0.0000    0.0000    0.4001    0.9162    0.0066    0.0051
       96 RE     5f2-       0.0000   -0.0000   -0.0000    0.0000   -0.0000   -0.0000   -0.0071   -0.0163   -0.0001   -0.0001
       97 RE     6f2-      -0.0000    0.0000   -0.0000    0.0000   -0.0000   -0.0000   -0.0026   -0.0061   -0.0000   -0.0000
       98 RE     7f2-      -0.0000    0.0000    0.0000   -0.0000    0.0000    0.0000    0.0010    0.0022    0.0000    0.0000
       99 RE     8f2-       0.0000   -0.0000   -0.0000    0.0000    0.0000    0.0000    0.0009    0.0021    0.0000    0.0000
      100 RE     9f2-       0.0000   -0.0000    0.0000   -0.0000    0.0000    0.0000    0.0001    0.0002    0.0000    0.0000
      101 RE    10f2-      -0.0000    0.0000    0.0000    0.0000   -0.0000   -0.0000   -0.0001   -0.0002   -0.0000   -0.0000
      102 RE    11f2-      -0.0000    0.0000   -0.0000   -0.0000   -0.0000   -0.0000   -0.0000   -0.0001   -0.0000   -0.0000
      103 RE     4f1-       0.0000   -0.0000   -0.0000   -0.0000    0.0000   -0.0000   -0.0033   -0.0076    0.7864    0.6174
      104 RE     5f1-       0.0000   -0.0000   -0.0000    0.0000   -0.0000    0.0000    0.0001    0.0001   -0.0140   -0.0110
      105 RE     6f1-      -0.0000    0.0000    0.0000   -0.0000   -0.0000    0.0000    0.0000    0.0001   -0.0052   -0.0041
      106 RE     7f1-      -0.0000    0.0000    0.0000    0.0000    0.0000   -0.0000   -0.0000   -0.0000    0.0019    0.0015
      107 RE     8f1-       0.0000   -0.0000   -0.0000   -0.0000    0.0000   -0.0000   -0.0000   -0.0000    0.0018    0.0014
      108 RE     9f1-       0.0000   -0.0000   -0.0000    0.0000    0.0000   -0.0000   -0.0000   -0.0000    0.0002    0.0001
      109 RE    10f1-      -0.0000    0.0000    0.0000   -0.0000   -0.0000    0.0000    0.0000    0.0000   -0.0002   -0.0001
      110 RE    11f1-       0.0000   -0.0000    0.0000   -0.0000   -0.0000    0.0000    0.0000    0.0000   -0.0001   -0.0001
      111 RE     4f0        0.0000    0.0000    0.0000   -0.0000   -0.0084    0.0000   -0.0000    0.0000   -0.0000    0.0000
[...]
   15         0.915046       7 0.5  1.0000    9 0.5  0.0000    8 0.5  0.0000    6 0.5  0.0000    5 0.5  0.0000
   16         0.915046       7 0.5  1.0000    9 0.5  0.0000    8 0.5  0.0000    6 0.5  0.0000    5 0.5  0.0000
   17         0.916878       9 0.5  1.0000    8 0.5  0.0000    7 0.5  0.0000    6 0.5  0.0000    5 0.5  0.0000
   18         0.916878       9 0.5  1.0000    8 0.5  0.0000    7 0.5  0.0000    6 0.5  0.0000    5 0.5  0.0000
 -------------------------------------------------------------------------------------------------------


      ****************************************************************************************************
      *                                                                                                  *
      *                                    Special properties section                                    *
      *                                                                                                  *
      ****************************************************************************************************


++ Dipole transition strengths (SO states):
   ----------------------------------------
    for osc. strength at least    1.0000000000000001E-005

      From   To        Osc. strength     Einstein coefficients Ax, Ay, Az (sec-1)    Total A (sec-1)
     -----------------------------------------------------------------------------------------------
         1   13       1.14487726E-01  6.12491269E+07  3.01859024E+09  1.82779963E+05  3.08002215E+09
         1   15       1.14740078E-01  3.01859035E+09  6.12491269E+07  6.97161550E+06  3.08681109E+09
         1   17       2.69400894E-04  7.11197437E+06  1.64678159E+05  9.41840878E-07  7.27665253E+06
         2   14       1.14487726E-01  6.12491269E+07  3.01859024E+09  1.82779963E+05  3.08002215E+09
         2   16       1.14740078E-01  3.01859035E+09  6.12491269E+07  6.97161550E+06  3.08681109E+09
         2   18       2.69400894E-04  7.11197437E+06  1.64678159E+05  9.41840878E-07  7.27665253E+06
         3   13       1.14740075E-01  3.01859031E+09  6.12491180E+07  6.97159857E+06  3.08681103E+09
         3   15       1.14487728E-01  6.12491347E+07  3.01859031E+09  1.82780394E+05  3.08002222E+09
         3   17       2.69400361E-04  1.64678800E+05  7.11195935E+06  1.11159303E-06  7.27663815E+06
         4   14       1.14740075E-01  3.01859031E+09  6.12491180E+07  6.97159857E+06  3.08681103E+09
         4   16       1.14487728E-01  6.12491347E+07  3.01859031E+09  1.82780394E+05  3.08002222E+09
         4   18       2.69400361E-04  1.64678800E+05  7.11195935E+06  1.11159303E-06  7.27663815E+06
         5   11       1.66797636E-05  1.34031616E+05  1.94919720E+03  1.59902621E-10  1.35980813E+05
         5   13       2.15555424E-03  8.48548768E+04  6.89328845E+06  5.09567372E+07  5.79348805E+07
         5   15       1.11997583E-01  6.89328417E+06  8.48549738E+04  3.00318344E+09  3.01016158E+09
         5   17       1.14901728E-01  3.05615840E+09  4.44451515E+07  6.14138660E-07  3.10060355E+09
         6   12       1.66797636E-05  1.34031616E+05  1.94919720E+03  1.59902621E-10  1.35980813E+05
         6   14       2.15555424E-03  8.48548768E+04  6.89328845E+06  5.09567372E+07  5.79348805E+07
         6   16       1.11997583E-01  6.89328417E+06  8.48549738E+04  3.00318344E+09  3.01016158E+09
         6   18       1.14901728E-01  3.05615840E+09  4.44451515E+07  6.14138660E-07  3.10060355E+09
         7   11       1.66797634E-05  1.94919719E+03  1.34031614E+05  2.26015337E-11  1.35980811E+05
         7   13       1.11997583E-01  6.89327005E+06  8.48555294E+04  3.00318346E+09  3.01016159E+09
         7   15       2.15555359E-03  8.48550160E+04  6.89327091E+06  5.09567369E+07  5.79348628E+07
         7   17       1.14901729E-01  4.44451511E+07  3.05615842E+09  7.61874249E-07  3.10060357E+09
         8   12       1.66797634E-05  1.94919719E+03  1.34031614E+05  2.26015337E-11  1.35980811E+05
         8   14       1.11997583E-01  6.89327005E+06  8.48555294E+04  3.00318346E+09  3.01016159E+09
         8   16       2.15555359E-03  8.48550160E+04  6.89327091E+06  5.09567369E+07  5.79348628E+07
         8   18       1.14901729E-01  4.44451511E+07  3.05615842E+09  7.61874249E-07  3.10060357E+09
         9   11       1.40148569E-05  8.51928033E-11  1.32585857E-11  1.14187901E+05  1.14187901E+05
         9   13       3.88071526E-02  9.44211390E+04  1.04258735E+09  5.48676308E-07  1.04268177E+09
         9   15       3.88071482E-02  1.04258723E+09  9.44220660E+04  7.59612303E-07  1.04268165E+09
         9   17       1.51267889E-01  6.01284887E-07  4.43951222E-07  4.08061432E+09  4.08061432E+09
        10   12       1.40148569E-05  8.51928033E-11  1.32585857E-11  1.14187901E+05  1.14187901E+05
        10   14       3.88071526E-02  9.44211390E+04  1.04258735E+09  5.48676308E-07  1.04268177E+09
        10   16       3.88071482E-02  1.04258723E+09  9.44220660E+04  7.59612303E-07  1.04268165E+09
        10   18       1.51267889E-01  6.01284887E-07  4.43951222E-07  4.08061432E+09  4.08061432E+09
        11   13       4.65767514E-01  2.28796363E+05  2.52633055E+09  1.90723656E-08  2.52655935E+09
        11   15       4.65767514E-01  2.52633055E+09  2.28796363E+05  2.68200488E-08  2.52655935E+09
        11   17       4.66768256E-01  2.61662742E-08  1.97999679E-08  2.55462231E+09  2.55462231E+09
        12   14       4.65767514E-01  2.28796363E+05  2.52633055E+09  1.90723656E-08  2.52655935E+09
        12   16       4.65767514E-01  2.52633055E+09  2.28796363E+05  2.68200488E-08  2.52655935E+09
        12   18       4.66768256E-01  2.61662742E-08  1.97999679E-08  2.55462231E+09  2.55462231E+09
     -----------------------------------------------------------------------------------------------
--

++ Velocity transition strengths (SO states):
   ------------------------------------------
    for osc. strength at least    1.0000000000000001E-005

      From   To        Osc. strength     Einstein coefficients Ax, Ay, Az (sec-1)    Total A (sec-1)
     -----------------------------------------------------------------------------------------------
         1    5       1.67449572E-05  9.48067807E-02  7.31969550E-03  4.41651459E-05  1.02170641E-01
         1    7       1.67377243E-05  7.31969692E-03  9.48067699E-02  4.24537197E-08  1.02126509E-01
         1   13       9.35624043E-02  5.00545823E+07  2.46688045E+09  1.49470171E+05  2.51708450E+09
         1   15       9.37687672E-02  2.46688054E+09  5.00545823E+07  5.70110937E+06  2.52263623E+09
         1   17       2.20430535E-04  5.81921516E+06  1.34744249E+05  7.67685242E-07  5.95395941E+06
         2    6       1.67449572E-05  9.48067807E-02  7.31969550E-03  4.41651459E-05  1.02170641E-01
         2    8       1.67377243E-05  7.31969692E-03  9.48067699E-02  4.24537197E-08  1.02126509E-01
         2   14       9.35624043E-02  5.00545823E+07  2.46688045E+09  1.49470171E+05  2.51708450E+09
         2   16       9.37687672E-02  2.46688054E+09  5.00545823E+07  5.70110937E+06  2.52263623E+09
         2   18       2.20430535E-04  5.81921516E+06  1.34744249E+05  7.67685242E-07  5.95395941E+06
         3    5       1.67377254E-05  7.31969686E-03  9.48067767E-02  4.24569674E-08  1.02126516E-01
         3    7       1.67449565E-05  9.48067768E-02  7.31969563E-03  4.41648104E-05  1.02170637E-01
         3   13       9.37687653E-02  2.46688050E+09  5.00545750E+07  5.70109553E+06  2.52263618E+09
         3   15       9.35624066E-02  5.00545887E+07  2.46688050E+09  1.49470523E+05  2.51708456E+09
         3   17       2.20430100E-04  1.34744772E+05  5.81920289E+06  9.06766836E-07  5.95394766E+06
         4    6       1.67377254E-05  7.31969686E-03  9.48067767E-02  4.24569674E-08  1.02126516E-01
         4    8       1.67449565E-05  9.48067768E-02  7.31969563E-03  4.41648104E-05  1.02170637E-01
         4   14       9.37687653E-02  2.46688050E+09  5.00545750E+07  5.70109553E+06  2.52263618E+09
         4   16       9.35624066E-02  5.00545887E+07  2.46688050E+09  1.49470523E+05  2.51708456E+09
         4   18       2.20430100E-04  1.34744772E+05  5.81920289E+06  9.06766836E-07  5.95394766E+06
         5    9       1.38238824E-04  9.67057449E-02  1.40637372E-03  1.39124726E-16  9.81121187E-02
         5   11       1.32431411E-05  1.06416722E+05  1.54759885E+03  1.25668818E-10  1.07964321E+05
         5   13       1.76073818E-03  6.92727581E+04  5.62745624E+06  4.16268357E+07  4.73235647E+07
         5   15       9.14909766E-02  5.62745275E+06  6.92728374E+04  2.45331689E+09  2.45901361E+09
         5   17       9.39067011E-02  2.49774095E+09  3.63241889E+07  5.02057421E-07  2.53406514E+09
         6   10       1.38238824E-04  9.67057449E-02  1.40637372E-03  1.39124726E-16  9.81121187E-02
         6   12       1.32431411E-05  1.06416722E+05  1.54759885E+03  1.25668818E-10  1.07964321E+05
         6   14       1.76073818E-03  6.92727581E+04  5.62745624E+06  4.16268357E+07  4.73235647E+07
         6   16       9.14909766E-02  5.62745275E+06  6.92728374E+04  2.45331689E+09  2.45901361E+09
         6   18       9.39067011E-02  2.49774095E+09  3.63241889E+07  5.02057421E-07  2.53406514E+09
         7    9       1.38238833E-04  1.40637416E-03  9.67057508E-02  1.34198104E-18  9.81121249E-02
         7   11       1.32431410E-05  1.54759889E+03  1.06416721E+05  1.67331754E-11  1.07964320E+05
         7   13       9.14909767E-02  5.62744121E+06  6.92732916E+04  2.45331690E+09  2.45901361E+09
         7   15       1.76073764E-03  6.92728720E+04  5.62744190E+06  4.16268355E+07  4.73235503E+07
         7   17       9.39067016E-02  3.63241885E+07  2.49774096E+09  6.21503193E-07  2.53406515E+09
         8   10       1.38238833E-04  1.40637416E-03  9.67057508E-02  1.34198104E-18  9.81121249E-02
         8   12       1.32431410E-05  1.54759889E+03  1.06416721E+05  1.67331754E-11  1.07964320E+05
         8   14       9.14909767E-02  5.62744121E+06  6.92732916E+04  2.45331690E+09  2.45901361E+09
         8   16       1.76073764E-03  6.92728720E+04  5.62744190E+06  4.16268355E+07  4.73235503E+07
         8   18       9.39067016E-02  3.63241885E+07  2.49774096E+09  6.21503193E-07  2.53406515E+09
         9   11       1.07469604E-05  6.47564300E-11  7.20791707E-12  8.75625867E+04  8.75625867E+04
         9   13       3.17357452E-02  7.72160651E+04  8.52610904E+08  4.48748548E-07  8.52688120E+08
         9   15       3.17357416E-02  8.52610806E+08  7.72168235E+04  6.18548469E-07  8.52688023E+08
         9   17       1.23534456E-01  4.93254065E-07  3.62779780E-07  3.33248667E+09  3.33248667E+09
        10   12       1.07469604E-05  6.47564300E-11  7.20791707E-12  8.75625867E+04  8.75625867E+04
        10   14       3.17357452E-02  7.72160651E+04  8.52610904E+08  4.48748548E-07  8.52688120E+08
        10   16       3.17357416E-02  8.52610806E+08  7.72168235E+04  6.18548469E-07  8.52688023E+08
        10   18       1.23534456E-01  4.93254065E-07  3.62779780E-07  3.33248667E+09  3.33248667E+09
        11   13       4.32544009E-01  2.12476905E+05  2.34613388E+09  1.78800936E-08  2.34634636E+09
        11   15       4.32544009E-01  2.34613388E+09  2.12476905E+05  2.41159835E-08  2.34634636E+09
        11   17       4.33296626E-01  2.50790338E-08  1.82190141E-08  2.37144036E+09  2.37144036E+09
        12   14       4.32544009E-01  2.12476905E+05  2.34613388E+09  1.78800936E-08  2.34634636E+09
        12   16       4.32544009E-01  2.34613388E+09  2.12476905E+05  2.41159835E-08  2.34634636E+09
        12   18       4.33296626E-01  2.50790338E-08  1.82190141E-08  2.37144036E+09  2.37144036E+09
        13   17       1.92830353E-05  1.88398457E-04  2.08026726E+00  6.41623205E-16  2.08045566E+00
        14   18       1.92830353E-05  1.88398457E-04  2.08026726E+00  6.41623205E-16  2.08045566E+00
        15   17       1.92830353E-05  2.08026726E+00  1.88399058E-04  1.55403143E-14  2.08045566E+00
        16   18       1.92830353E-05  2.08026726E+00  1.88399058E-04  1.55403143E-14  2.08045566E+00
     -----------------------------------------------------------------------------------------------
--

++ Length and velocity gauge comparison (SO states):

 --------------------------------------------------
 A comparison between the dipole oscillator strengths in 
 length and velocity gauge will be performed

 All dipole oscillator differences above the tolerance of   0.10000000000000001       will be printed 

 Due to basis set deficiency these oscillator may be problematic 

 The tolerance is defined as ABS(1-O_l/O_v) 
 O_l : dipole oscillator strength in length gauge
 O_p : dipole oscillator strength in velocity gauge
 --------------------------------------------------

  Problematic transitions have been found

      From   To       Difference (%) Osc. st. (len.) Osc. st. (vel.)
     ---------------------------------------------------------------
         1    5      --------------- below threshold  1.67449572E-05
         1    7      --------------- below threshold  1.67377243E-05
         1   13            22.365096  1.14487726E-01  9.35624043E-02
         1   15            22.364921  1.14740078E-01  9.37687672E-02
         1   17            22.215778  2.69400894E-04  2.20430535E-04
         2    6      --------------- below threshold  1.67449572E-05
         2    8      --------------- below threshold  1.67377243E-05
         2   14            22.365096  1.14487726E-01  9.35624043E-02
         2   16            22.364921  1.14740078E-01  9.37687672E-02
         2   18            22.215778  2.69400894E-04  2.20430535E-04
         3    5      --------------- below threshold  1.67377254E-05
         3    7      --------------- below threshold  1.67449565E-05
         3   13            22.364921  1.14740075E-01  9.37687653E-02
         3   15            22.365096  1.14487728E-01  9.35624066E-02
         3   17            22.215778  2.69400361E-04  2.20430100E-04
         4    6      --------------- below threshold  1.67377254E-05
         4    8      --------------- below threshold  1.67449565E-05
         4   14            22.364921  1.14740075E-01  9.37687653E-02
         4   16            22.365096  1.14487728E-01  9.35624066E-02
         4   18            22.215778  2.69400361E-04  2.20430100E-04
         5    9      --------------- below threshold  1.38238824E-04
         5   11            25.950206  1.66797636E-05  1.32431411E-05
         5   13            22.423326  2.15555424E-03  1.76073818E-03
         5   15            22.413802  1.11997583E-01  9.14909766E-02
         5   17            22.357326  1.14901728E-01  9.39067011E-02
         6   10      --------------- below threshold  1.38238824E-04
         6   12            25.950206  1.66797636E-05  1.32431411E-05
         6   14            22.423326  2.15555424E-03  1.76073818E-03
         6   16            22.413802  1.11997583E-01  9.14909766E-02
         6   18            22.357326  1.14901728E-01  9.39067011E-02
         7    9      --------------- below threshold  1.38238833E-04
         7   11            25.950206  1.66797634E-05  1.32431410E-05
         7   13            22.413802  1.11997583E-01  9.14909767E-02
         7   15            22.423326  2.15555359E-03  1.76073764E-03
         7   17            22.357326  1.14901729E-01  9.39067016E-02
         8   10      --------------- below threshold  1.38238833E-04
         8   12            25.950206  1.66797634E-05  1.32431410E-05
         8   14            22.413802  1.11997583E-01  9.14909767E-02
         8   16            22.423326  2.15555359E-03  1.76073764E-03
         8   18            22.357326  1.14901729E-01  9.39067016E-02
         9   11            30.407635  1.40148569E-05  1.07469604E-05
         9   13            22.282153  3.88071526E-02  3.17357452E-02
         9   15            22.282153  3.88071482E-02  3.17357416E-02
         9   17            22.449958  1.51267889E-01  1.23534456E-01
        10   12            30.407635  1.40148569E-05  1.07469604E-05
        10   14            22.282153  3.88071526E-02  3.17357452E-02
        10   16            22.282153  3.88071482E-02  3.17357416E-02
        10   18            22.449958  1.51267889E-01  1.23534456E-01
        13   17      --------------- below threshold  1.92830353E-05
        14   18      --------------- below threshold  1.92830353E-05
        15   17      --------------- below threshold  1.92830353E-05
        16   18      --------------- below threshold  1.92830353E-05
     ---------------------------------------------------------------

 Number of problematic transitions =                    52

--

 Electric-dipole - electric-octupole not included
++ I/O STATISTICS
 
  I. General I/O information
  - - - - - - - - - - - - - - - - - - - - - - - - - - - - - - - - - - - - - - - - - - -
  Unit  Name          Flsize      Write/Read            MBytes           Write/Read
                      (MBytes)       Calls              In/Out           Time, sec.
  - - - - - - - - - - - - - - - - - - - - - - - - - - - - - - - - - - - - - - - - - - -
   1  SCRATCH           0.00 .       9/      45 .      0.0/      0.0 .       0/       0
   2  ANNI              0.00 .       0/       0 .      0.0/      0.0 .       0/       0
   3  RUNFILE          15.28 .     322/    9923 .      2.3/     72.0 .       0/       0
   4  ONEINT            6.58 .       0/   28767 .      0.0/   3777.9 .       0/       0
   5  JOBIPH            7.71 .       0/      92 .      0.0/      0.9 .       0/       0
   6  ORDINT          771.03 .       1/    6169 .      0.0/   1542.0 .       0/       0
  - - - - - - - - - - - - - - - - - - - - - - - - - - - - - - - - - - - - - - - - - - -
   *  TOTAL           800.61 .     332/   44996 .      2.3/   5392.8 .       0/       0
  - - - - - - - - - - - - - - - - - - - - - - - - - - - - - - - - - - - - - - - - - - -
 
  II. I/O Access Patterns
  - - - - - - - - - - - - - - - - - - - -
  Unit  Name               % of random
                         Write/Read calls
  - - - - - - - - - - - - - - - - - - - -
   1  SCRATCH             88.9/ 100.0
   2  ANNI                 0.0/   0.0
   3  RUNFILE             28.6/  10.8
   4  ONEINT               0.0/  13.4
   5  JOBIPH               0.0/  76.1
   6  ORDINT             100.0/   0.0
  - - - - - - - - - - - - - - - - - - - -
--
--- Stop Module: rassi at Thu Dec 26 11:56:52 2024 /rc=_RC_ALL_IS_WELL_ ---
*** files: xmldump
    saved to directory /home4/s4752295/Internship/Initial_simulations/Point_charge_model/1_electron/active_space_9_non_rel/Re/varying_bond_length
--- Module rassi spent 3 seconds ---

.##################.
.# Happy landing! #.
.##################.

    Timing: Wall=65.77 User=54.98 System=9.88

###############################################################################
Hbrk Cluster
Job 14416908 for user s4752295
Finished at: Thu Dec 26 11:56:53 CET 2024

Job details:
============

Job ID                         : 14416908
Name                           : Re_no_c_light
User                           : s4752295
Partition                      : regularmedium
Nodes                          : node80
Number of Nodes                : 1
Cores                          : 1
Number of Tasks                : 1
State                          : RUNNING  
Submit                         : 2024-12-26T11:55:43
Start                          : 2024-12-26T11:55:44
End                            : --
Reserved walltime              : 15:00:00
Used walltime                  : 00:01:09
Used CPU time                  : -- 
% User (Computation)           : --
% System (I/O)                 : --
Total memory reserved          : 25000M
Maximum memory used            : --

Acknowledgements:
=================

Please see this page for information about acknowledging Hbrk in your publications:

https://wiki.hpc.rug.nl/habrok/introduction/scientific_output

################################################################################
