   This run of MOLCAS is using the pymolcas driver

                             OPE
                             OPE          NMOL  CASOP  ENMOLC A   SO
                 OPE        NMOLC        AS  OP EN  MO LC     AS  OP
                OPENM       OL CA        SO  PE NM  OL CA     SOP EN
                OP EN      MO   LC       AS  OP ENMOL  CASO   PENMOL
                OP  EN     MO   LC       AS  OP EN     MO     LC ASO
               OP   E  NMOL  C  AS       OP  EN MO     LC     AS  OP
               OP  E   NMO   LC AS        OPEN  MO     LCASOP EN   M
               O  PEN   MO  LCA  SO
            OPE   NMO   L   CAS    OP
        OPENMOL  CASOP     ENMOL   CASOPE
     OPENMOLCA   SOPENMOLCASOPEN   MOLCASOPE
    OPENMOLCAS   OP           EN   MOL    CAS
    OPENMOLCAS       OP  ENM        O     LCA
    OPENMOLCAS    OPEN  MOLCASO     P  E  NMO
    OPENMOLCAS     OP               E  N  MOL
    OPENMOLCA   SO           PENM   O  L  CAS    OPEN    MO    LCAS
    OPENMOLCA   SOP           ENM   O  L  CAS   OP  EN  MOLC  AS   O
    OPENMOLCA   SOPE           NM      O  LCA   S      OP  EN MO
    OPENMOLC                AS         O  PEN   M      OL  CA  SOPE
    OPENMO        LCASOPE  NMOL        C  ASO   P      ENMOLC     AS
    OPE     NMO      LCA  SO     P     E   NM   OL  CA SO  PE N   MO
          OPENMOLCA            SOPE   NMO        LCAS  O    P  ENMO
     OPENMOLCASOPENMOLCASOPENMOLCASOPENMOLCA
        OPENMOLCASOPENMOLCASOPENMOLCASOPE
            OPENMOLCASOPENMOLCASOPENM
               OPENMOLCASOPENMOLCA        version: o91e1abe7de707b ?
                   OPENMOLCASO
                       OPE                tag:

 OpenMolcas is free software; you can redistribute it and/or modify it
 under the terms of the GNU Lesser General Public License version 2.1.
 OpenMolcas is distributed in the hope that it will be useful, but it
 is provided "as is" and without any express or implied warranties.
 For more details see the full text of the license in the file
 LICENSE or in <http://www.gnu.org/licenses/>.

                 Copyright (C) The OpenMolcas Authors
           For the author list and the recommended citation,
                   consult the file CONTRIBUTORS.md

           *************************************************
           * pymolcas version py2.10                       *
           *   build 3068ae8b88c9345ec6cfef6fef7f1169      *
           *   (after the EMIL interpreter by V. Veryazov) *
           *************************************************

configuration info
------------------
Host name: login1 (Linux)
C Compiler ID: GNU
C flags: -std=gnu99
Fortran Compiler ID: GNU
Fortran flags: -fno-aggressive-loop-optimizations -cpp -fdefault-integer-8 -fmax-stack-var-size=1048576
Definitions: _MOLCAS_;_I8_;_LINUX_;_MKL_
Parallel: OFF (GA=OFF)


   ----------------------------------------------------------------------------------------------------------------------------------------------
  |
  |           Project: tantalum_so_cf
  |    Submitted from: /home4/s4752295/Internship/Initial_simulations/Point_charge_model/1_electron/active_space_9_non_rel/Ta/varying_bond_length
  |      Scratch area: /tmp/tantalum_so_cf
  |   Save outputs to: /home4/s4752295/Internship/Initial_simulations/Point_charge_model/1_electron/active_space_9_non_rel/Ta/varying_bond_length
  |            Molcas: /home4/s4752295/Internship/Molcas/recomp_try/OpenMolcas-master/build
  |
  | Scratch area is empty
  |
  |    MOLCAS_DRIVER = /home4/s4752295/Internship/Molcas/bin/pymolcas
  |    MOLCAS_NPROCS = 1
  |    MOLCAS_SOURCE = /home4/s4752295/Internship/Molcas/recomp_try/OpenMolcas-master
  | MOLCAS_STRUCTURE = 0
  |
   ----------------------------------------------------------------------------------------------------------------------------------------------

++ ---------   Input file   ---------

&SEWARD
AMFi

CLIG
$R

Basis Set
Ta.ANO-rcc.Roos.24s21p15d11f4g2h.11s10p9d8f4g2h.
Spherical d
Ta            0.0       0.0     0.0
End of Basis

Xfield
4
0.000000,  0.0000,  0.270       -1.0
0.233827,  0.0000, -0.135       -1.0
-0.116913,  0.2025, -0.135      -1.0
-0.116913, -0.2025, -0.135      -1.0

End of input

&SCF
Occupied
34
Iterations
   50  100
End of Input

&RASSCF
LumOrb
Symmetry
1
Spin
2
Nactel
1 0 0
CIRoot
9 9 1
inactive
34
ras2
9
Alter
4
1 35 40
1 36 41
1 37 42
1 38 43
End of Input

>>> COPY tantalum_so_cf.JobIph $SLURM_SUBMIT_DIR/tantalum_so_cf.doublet.JobIph

>>> COPY $SLURM_SUBMIT_DIR/tantalum_so_cf.doublet.JobIph ./JOB002

&RASSI
NROFJobIph
1 All
SpinOrbit
End of Input

EOF

-- ----------------------------------

--- Start Module: seward at Thu Jan  9 20:50:21 2025 ---

()()()()()()()()()()()()()()()()()()()()()()()()()()()()()()()()()()()()()()()()()()()()()()()()()()

                                              &SEWARD

                                   only a single process is used
                       available to each process: 4.1 GB of memory, 1 thread?
                                            pid: 2818253
()()()()()()()()()()()()()()()()()()()()()()()()()()()()()()()()()()()()()()()()()()()()()()()()()()

 The speed of LIGHT in this CALCULATION =   137.03599917700001     
               SEWARD will generate:
                  Multipole Moment integrals up to order  2
                  Kinetic Energy integrals
                  Nuclear Attraction integrals (point charge)
                  One-Electron Hamiltonian integrals
                  Velocity integrals
                  Relativistic Douglas-Kroll-Hess integrals:
                    - Parametrization         : EXP
                    - DKH order of Hamiltonian: 2
                    - DKH order of Properties : 0
                         - multipole moment operators
                         - electric potential operators
                         - contact operators
                  External field from     4 point(s) added to the one-electron Hamiltonian
                  Orbital angular momentum around ( 0.0000  0.0000  0.0000 )
                  Velocity quadrupole around ( 0.0000  0.0000  0.0000 )
                  Atomic mean-field integrals
                  Two-Electron Repulsion integrals

                   Integrals are discarded if absolute value <: 0.10E-13
                   Integral cutoff threshold is set to       <: 0.10E-15

++    Symmetry information:
      ---------------------

                    Character Table for C1 

                             E  
                    a        1  x, y, xy, Rz, z, xz, Ry, yz, Rx, I
--


++    Basis set information:
      ----------------------


      Basis set label: TA.ANO-RCC.ROOS.24S21P15D11F4G2H.11S10P9D8F4G2H......

      Electronic valence basis set:
      ------------------
      Associated Effective Charge  73.000000 au
      Associated Actual Charge     73.000000 au
      Nuclear Model: Point charge

      Shell  nPrim  nBasis  Cartesian Spherical Contaminant
         s      24      11        X                  
         p      21      10        X                  
         d      15       9                 X         
         f      11       8                 X         
         g       4       4                 X         
         h       2       2                 X         
--


++    Molecular structure info:
      -------------------------

                    ************************************************ 
                    **** Cartesian Coordinates / Bohr, Angstrom **** 
                    ************************************************ 

     Center  Label                x              y              z                     x              y              z
        1      TA               0.000000       0.000000       0.000000              0.000000       0.000000       0.000000
--


++    Operator info:
      --------------


  Net charge from external field:   -4.0000000000000000     
--


            Nuclear Potential Energy              0.00000000 au

                    Nuclear-External Field Potential Energy   -1081.48173170 au
                    External Field Potential Energy              13.82241410 au 


            Total Nuclear Potential Energy          -1081.48173170 au


      Basis set specifications :
      Symmetry species         a  
      Basis functions          200

 Sorry, Molden does not know how to handle
 functions with angular momentum larger than g
Note: The following floating-point exceptions are signalling: IEEE_UNDERFLOW_FLAG IEEE_DENORMAL
--- Stop Module: seward at Thu Jan  9 20:50:40 2025 /rc=_RC_ALL_IS_WELL_ ---
*** files: tantalum_so_cf.GssOrb xmldump
    saved to directory /home4/s4752295/Internship/Initial_simulations/Point_charge_model/1_electron/active_space_9_non_rel/Ta/varying_bond_length
--- Module seward spent 19 seconds ---

*** symbolic link created: INPORB -> tantalum_so_cf.GssOrb
--- Start Module: scf at Thu Jan  9 20:50:40 2025 ---

()()()()()()()()()()()()()()()()()()()()()()()()()()()()()()()()()()()()()()()()()()()()()()()()()()

                                                &SCF

                                   only a single process is used
                       available to each process: 4.1 GB of memory, 1 thread?
                                            pid: 2818861
()()()()()()()()()()()()()()()()()()()()()()()()()()()()()()()()()()()()()()()()()()()()()()()()()()

++    Input section:
      --------------

      Header of the integral files:
      
       Integrals generated by seward 4.2.0  , Thu Jan  9 20:50:21 2025


      Cartesian coordinates in Angstrom:
      -----------------------------------------------------
      No.  Label        X            Y            Z        
      -----------------------------------------------------
       1   TA         0.00000000   0.00000000   0.00000000
      -----------------------------------------------------
      Nuclear repulsion energy =-1081.48173170
--

++    Orbital specifications:
      -----------------------

      Symmetry species               1
                                     a
      Frozen orbitals                0
      Occupied orbitals             34
      Secondary orbitals           166
      Deleted orbitals               0
      Total number of orbitals     200
      Number of basis functions    200
--

      Molecular charge                           5.000

++    Optimization specifications:
      ----------------------------

      SCF Algorithm: Conventional
      Minimized density differences are used
      Number of density matrices in core                5
      Maximum number of NDDO SCF iterations            50
      Maximum number of HF SCF iterations             100
      Threshold for SCF energy change            0.10E-08
      Threshold for density matrix               0.10E-03
      Threshold for Fock matrix                  0.15E-03
      Threshold for linear dependence            0.10E-08
      Threshold at which DIIS is turned on       0.15E+00
      Threshold at which QNR/C2DIIS is turned on 0.75E-01
      Threshold for Norm(delta) (QNR/C2DIIS)     0.20E-04
      DIIS extrapolation of the SCF procedure
      All orbitals punched on: SCFORB
--

      Detected guessorb starting orbitals                                             


++ Convergence information
                                   SCF        iterations: Energy and convergence statistics

Iter     Tot. SCF        One-elec.       Two-elec.     Energy      Max Dij or  Max Fij      DNorm      TNorm      AccCon     Time
         Energy          Energy          Energy        Change      Delta Norm                                                in Sec.

 The total and one-electron energies are shifted by a value of     15000. a.u.

   1  -963.157316448 -5534.425123488  5652.749538740   0.00E+00    0.51E+00*   0.20E+01*    0.12E+02   0.15E+04   None         1.
   2  -875.919514124 -3951.721301700  4157.283519277   0.87E+02*   0.46E+00*   0.69E+00*    0.89E+01   0.13E+04   EDIIS        1.
   3  -975.146425758 -4957.271592197  5063.606898139  -0.99E+02*   0.27E+00*   0.62E+00*    0.52E+01   0.14E+04   EDIIS        1.
   4  -977.996589779 -5243.379616336  5346.864758258  -0.29E+01*   0.32E+00*   0.27E+00*    0.20E+01   0.14E+04   EDIIS        1.
   5  -978.552891658 -5065.858537953  5168.787377995  -0.56E+00*   0.16E+00*   0.13E+00*    0.14E+01   0.14E+04   EDIIS        1.
   6  -979.018573580 -5160.729217373  5263.192375493  -0.47E+00*   0.30E+00*   0.63E-01*    0.47E+00   0.14E+04   EDIIS        1.
   7  -979.006162016 -5109.328936482  5211.804506166   0.12E-01*   0.24E+00*   0.42E-01*    0.25E+00   0.14E+04   EDIIS        1.
   8  -979.088696635 -5139.807324368  5242.200359434  -0.83E-01*   0.25E+00*   0.30E-01*    0.75E-01   0.14E+04   EDIIS        1.
   9  -979.104422644 -5131.155465160  5233.532774217  -0.16E-01*   0.21E+00*   0.28E-01*    0.84E-01   0.14E+04   EDIIS        1.
  10  -979.115520374 -5143.668655851  5246.034867177  -0.11E-01*   0.24E+00*   0.40E-01*    0.34E-01   0.14E+04   EDIIS        1.
  11  -979.111744304 -5117.555966450  5219.925953847   0.38E-02*   0.20E+00*   0.31E-01*    0.45E-01   0.14E+04   EDIIS        1.
  12  -979.141053584 -5137.871619680  5240.212297797  -0.29E-01*   0.19E+00*   0.29E-01*    0.14E-01   0.14E+04   EDIIS        1.
  13  -979.148023512 -5125.492983165  5227.826691353  -0.70E-02*   0.14E+00*   0.32E-01*    0.98E-02   0.14E+04   EDIIS        1.
  14  -979.144582119 -5146.010023094  5248.347172676   0.34E-02*   0.15E+00*   0.20E-01*    0.17E-01   0.14E+04   c2DIIS       1.
  15  -979.163420576 -5134.200901064  5236.519212189  -0.19E-01*   0.59E-01*   0.14E+00*    0.41E-02   0.14E+04   c2DIIS       1.
  16  -979.174070185 -5133.595987811  5235.903649326  -0.11E-01*   0.31E-01*   0.11E-01*    0.86E-01   0.14E+04   QNRc2DIIS    1.
  17  -979.175906521 -5131.788017800  5234.093842979  -0.18E-02*   0.20E-01*   0.47E-02*    0.40E-01   0.14E+04   QNRc2DIIS    1.
  18  -979.176165526 -5133.298500433  5235.604066607  -0.26E-03*   0.14E-01*   0.70E-02*    0.18E-01   0.14E+04   QNRc2DIIS    1.
  19  -979.176437153 -5131.943357927  5234.248652475  -0.27E-03*   0.83E-02*   0.25E-02*    0.81E-02   0.14E+04   QNRc2DIIS    1.
  20  -979.176539057 -5132.064045663  5234.369238306  -0.10E-03*   0.13E-01*   0.11E-02*    0.58E-02   0.14E+04   QNRc2DIIS    1.
  21  -979.176597248 -5132.290661049  5234.595795502  -0.58E-04*   0.22E-02*   0.73E-03*    0.98E-02   0.14E+04   QNRc2DIIS    1.
  22  -979.176603403 -5132.306454610  5234.611582907  -0.62E-05*   0.10E-02*   0.16E-03*    0.29E-02   0.14E+04   QNRc2DIIS    1.
  23  -979.176604722 -5132.294982478  5234.600109456  -0.13E-05*   0.70E-03*   0.77E-04     0.11E-02   0.14E+04   QNRc2DIIS    1.
  24  -979.176605120 -5132.289295738  5234.594422318  -0.40E-06*   0.58E-03*   0.44E-04     0.65E-03   0.14E+04   QNRc2DIIS    1.
  25  -979.176605267 -5132.290819781  5234.595946215  -0.15E-06*   0.17E-03*   0.33E-04     0.51E-03   0.14E+04   QNRc2DIIS    1.
  26  -979.176605299 -5132.291200657  5234.596327058  -0.32E-07*   0.28E-03*   0.30E-04     0.28E-03   0.14E+04   QNRc2DIIS    1.
  27  -979.176605339 -5132.290706995  5234.595833356  -0.40E-07*   0.34E-03*   0.21E-04     0.27E-03   0.14E+04   QNRc2DIIS    1.
  28  -979.176605373 -5132.290607844  5234.595734172  -0.34E-07*   0.13E-03*   0.13E-04     0.26E-03   0.14E+04   QNRc2DIIS    1.
  29  -979.176605381 -5132.290710887  5234.595837207  -0.78E-08*   0.10E-03*   0.87E-05     0.11E-03   0.14E+04   QNRc2DIIS    1.
  30  -979.176605385 -5132.290885107  5234.596011423  -0.44E-08*   0.40E-04*   0.36E-05     0.64E-04   0.14E+04   QNRc2DIIS    1.
  31  -979.176605386 -5132.290873480  5234.595999795  -0.90E-09    0.35E-04*   0.34E-05     0.12E-02   0.14E+04   QNRc2DIIS    1.
  32  -979.176605387 -5132.290837164  5234.595963478  -0.54E-09    0.44E-05    0.21E-05     0.18E-02   0.14E+04   QNRc2DIIS    1.

       Convergence after 32 Macro Iterations
--

 *****************************************************************************************************************************
 *                                                                                                                           *
 *                                             SCF/KS-DFT Program, Final results                                             *
 *                                                                                                                           *
 *                                                                                                                           *
 *                                                                                                                           *
 *                                                       Final Results                                                       *
 *                                                                                                                           *
 *****************************************************************************************************************************

::    Total SCF energy                             -15979.1766053865
      One-electron energy                          -20132.2908371637
      Two-electron energy                            5234.5959634777
      Nuclear repulsion energy                      -1081.4817317006
      Kinetic energy (interpolated)                 21356.5705462483
      Virial theorem                                    0.7482089210
      Total spin, S(S+1)                                0.0000000000
      Total spin, S                                     0.0000000000
      Max non-diagonal density matrix element           0.0000036246
      Max non-diagonal Fock matrix element              0.0000006573


      All orbitals with orbital energies smaller than  E(LUMO)+0.5 are printed

++    Molecular orbitals:
      -------------------

      Title: SCF orbitals

      Molecular orbitals for symmetry species 1: a  

          Some orbital energies have been scaled by powers of 10, the power is written right after the orbital index


          Orbital            1 (1)     2         3         4         5         6         7         8         9        10    
          Energy         -248.3375 -429.7126 -377.6831 -377.6831 -377.5903  -98.0354  -82.4053  -82.4053  -81.7206  -63.4071
          Occ. No.          2.0000    2.0000    2.0000    2.0000    2.0000    2.0000    2.0000    2.0000    2.0000    2.0000

        1 TA     1s         1.0000    0.0000    0.0000   -0.0000   -0.0000   -0.0000   -0.0000    0.0000    0.0000    0.0000
        2 TA     2s        -0.0000    1.0000    0.0000   -0.0000   -0.0039    0.0004    0.0000   -0.0000   -0.0003    0.0000
        3 TA     3s         0.0000   -0.0004   -0.0000    0.0000    0.0002    0.9992    0.0000   -0.0000   -0.0343    0.0000
        4 TA     4s        -0.0000    0.0001    0.0000   -0.0000   -0.0001    0.0038   -0.0000    0.0000    0.0001    0.0000
        5 TA     5s         0.0000   -0.0001   -0.0000    0.0000    0.0000   -0.0007    0.0000   -0.0000   -0.0002   -0.0000
        6 TA     6s        -0.0000    0.0000    0.0000   -0.0000   -0.0000    0.0002   -0.0000    0.0000    0.0000    0.0000
        7 TA     7s         0.0000   -0.0000   -0.0000   -0.0000    0.0000   -0.0003    0.0000   -0.0000   -0.0001    0.0000
        8 TA     8s        -0.0000    0.0001    0.0000   -0.0000   -0.0000    0.0005   -0.0000    0.0000    0.0002   -0.0000
        9 TA     9s         0.0000   -0.0001   -0.0000    0.0000    0.0000   -0.0004    0.0000   -0.0000   -0.0003    0.0000
       10 TA    10s        -0.0000    0.0001    0.0000   -0.0000   -0.0000    0.0001   -0.0000    0.0000    0.0002   -0.0000
       11 TA    11s         0.0000   -0.0001   -0.0000    0.0000    0.0000    0.0007    0.0000   -0.0000   -0.0006    0.0000
       12 TA     2px       -0.0000   -0.0000    1.0000   -0.0000    0.0000    0.0000    0.0003   -0.0000    0.0000    0.0000
       13 TA     3px        0.0000   -0.0000   -0.0004    0.0000   -0.0000   -0.0000    0.9983   -0.0000    0.0000    0.0000
       14 TA     4px       -0.0000    0.0000    0.0001   -0.0000    0.0000   -0.0000    0.0049   -0.0000    0.0000    0.0000
       15 TA     5px        0.0000   -0.0000   -0.0000    0.0000   -0.0000    0.0000   -0.0010    0.0000   -0.0000   -0.0000
       16 TA     6px       -0.0000    0.0000    0.0000   -0.0000    0.0000   -0.0000    0.0004   -0.0000    0.0000    0.0000
       17 TA     7px        0.0000   -0.0000   -0.0001    0.0000   -0.0000    0.0000   -0.0010    0.0000   -0.0000   -0.0000
       18 TA     8px       -0.0000    0.0000    0.0001   -0.0000    0.0000   -0.0000    0.0007   -0.0000    0.0000    0.0000
       19 TA     9px        0.0000   -0.0000   -0.0001    0.0000   -0.0000    0.0000   -0.0004    0.0000   -0.0000   -0.0000
       20 TA    10px       -0.0000    0.0000    0.0001   -0.0000    0.0000   -0.0000    0.0001   -0.0000    0.0000    0.0000
       21 TA    11px        0.0000   -0.0000   -0.0001    0.0000   -0.0000    0.0000    0.0011   -0.0000   -0.0000   -0.0000
       22 TA     2py        0.0000    0.0000    0.0000    1.0000    0.0000   -0.0000    0.0000    0.0003    0.0000    0.0001
       23 TA     3py       -0.0000    0.0000   -0.0000   -0.0004   -0.0000    0.0000    0.0000    0.9983    0.0000    0.0003
       24 TA     4py        0.0000   -0.0000    0.0000    0.0001    0.0000    0.0000    0.0000    0.0049    0.0000    0.0004
       25 TA     5py       -0.0000    0.0000   -0.0000   -0.0000   -0.0000   -0.0000   -0.0000   -0.0010    0.0000   -0.0001
       26 TA     6py        0.0000   -0.0000    0.0000    0.0000    0.0000    0.0000    0.0000    0.0004   -0.0000    0.0001
       27 TA     7py       -0.0000    0.0000   -0.0000   -0.0001   -0.0000   -0.0000   -0.0000   -0.0010    0.0000   -0.0002
       28 TA     8py        0.0000   -0.0000    0.0000    0.0001    0.0000    0.0000    0.0000    0.0007   -0.0000    0.0002
       29 TA     9py       -0.0000    0.0000   -0.0000   -0.0001   -0.0000   -0.0000   -0.0000   -0.0004    0.0000   -0.0002
       30 TA    10py        0.0000   -0.0000    0.0000    0.0001    0.0000    0.0000    0.0000    0.0001   -0.0000    0.0002
       31 TA    11py       -0.0000    0.0000   -0.0000   -0.0001   -0.0000   -0.0000    0.0000    0.0011    0.0000   -0.0003
       32 TA     2pz        0.0000    0.0039   -0.0000   -0.0000    1.0000   -0.0002    0.0000   -0.0000    0.0007    0.0000
       33 TA     3pz       -0.0000    0.0003    0.0000    0.0000   -0.0007    0.0340   -0.0000   -0.0000    0.9990    0.0000
       34 TA     4pz        0.0000   -0.0001   -0.0000    0.0000    0.0002    0.0001    0.0000   -0.0000    0.0044   -0.0000
       35 TA     5pz       -0.0000    0.0000    0.0000   -0.0000   -0.0001   -0.0001   -0.0000    0.0000   -0.0007    0.0000
       36 TA     6pz        0.0000   -0.0000   -0.0000    0.0000    0.0000    0.0000    0.0000   -0.0000    0.0003   -0.0000
       37 TA     7pz       -0.0000    0.0000    0.0000   -0.0000   -0.0001   -0.0002   -0.0000    0.0000   -0.0006    0.0000
       38 TA     8pz        0.0000   -0.0000   -0.0000    0.0000    0.0001    0.0002    0.0000   -0.0000    0.0002   -0.0000
       39 TA     9pz       -0.0000    0.0000    0.0000   -0.0000   -0.0001   -0.0002   -0.0000    0.0000    0.0002    0.0000
       40 TA    10pz        0.0000   -0.0001   -0.0000   -0.0000    0.0001    0.0003    0.0000   -0.0000   -0.0006   -0.0000
       41 TA    11pz       -0.0000    0.0001    0.0000    0.0000   -0.0001   -0.0006   -0.0000   -0.0000    0.0024    0.0000
       42 TA     3d2-       0.0000    0.0000    0.0000    0.0003    0.0000    0.0000    0.0000    0.0303    0.0000    0.8433
       43 TA     4d2-      -0.0000   -0.0000   -0.0000   -0.0001    0.0000    0.0000    0.0000    0.0017   -0.0000    0.0048
       44 TA     5d2-      -0.0000    0.0000    0.0000    0.0000    0.0000   -0.0000   -0.0000   -0.0004   -0.0000   -0.0007
       45 TA     6d2-      -0.0000   -0.0000   -0.0000   -0.0000   -0.0000    0.0000    0.0000    0.0007    0.0000    0.0011
       46 TA     7d2-       0.0000    0.0000    0.0000    0.0000   -0.0000   -0.0000   -0.0000   -0.0008   -0.0000   -0.0012
       47 TA     8d2-      -0.0000   -0.0000   -0.0000   -0.0000    0.0000    0.0000    0.0000    0.0013    0.0000    0.0014
       48 TA     9d2-       0.0000    0.0000    0.0000    0.0000   -0.0000   -0.0000   -0.0000   -0.0012   -0.0000   -0.0008
       49 TA    10d2-      -0.0000   -0.0000   -0.0000   -0.0000    0.0000    0.0000    0.0000    0.0018    0.0000    0.0005
       50 TA    11d2-       0.0000    0.0000   -0.0000   -0.0000   -0.0000   -0.0000   -0.0000   -0.0020   -0.0000    0.0006
       51 TA     3d1-       0.0000   -0.0000    0.0000    0.0007    0.0000   -0.0000    0.0000    0.0481    0.0000   -0.5374
       52 TA     4d1-       0.0000    0.0000   -0.0000   -0.0002   -0.0000    0.0000    0.0000    0.0023    0.0000   -0.0034
       53 TA     5d1-      -0.0000   -0.0000    0.0000    0.0000    0.0000    0.0000   -0.0000   -0.0005   -0.0000    0.0006
       54 TA     6d1-       0.0000    0.0000   -0.0000   -0.0001   -0.0000   -0.0000    0.0000    0.0009    0.0000   -0.0009
       55 TA     7d1-      -0.0000   -0.0000    0.0000    0.0001    0.0000    0.0000   -0.0000   -0.0011   -0.0000    0.0010
       56 TA     8d1-       0.0000    0.0000   -0.0000   -0.0001   -0.0000   -0.0000    0.0000    0.0017    0.0000   -0.0011
       57 TA     9d1-      -0.0000   -0.0000    0.0000    0.0001    0.0000    0.0000   -0.0000   -0.0016   -0.0000    0.0007
       58 TA    10d1-       0.0000    0.0000   -0.0000   -0.0001   -0.0000   -0.0000    0.0000    0.0024    0.0000   -0.0006
       59 TA    11d1-      -0.0000    0.0000    0.0000    0.0001    0.0000   -0.0000   -0.0000   -0.0028   -0.0000   -0.0001
       60 TA     3d0       -0.0000   -0.0003    0.0000   -0.0000   -0.0000   -0.0120    0.0000   -0.0000   -0.0286    0.0000
       61 TA     4d0        0.0000    0.0001    0.0000    0.0000   -0.0000   -0.0008    0.0000   -0.0000   -0.0022    0.0000
       62 TA     5d0       -0.0000   -0.0000   -0.0000   -0.0000    0.0000    0.0002   -0.0000    0.0000    0.0005   -0.0000
       63 TA     6d0        0.0000    0.0000    0.0000    0.0000   -0.0000   -0.0003    0.0000   -0.0000   -0.0008    0.0000
       64 TA     7d0       -0.0000   -0.0000   -0.0000   -0.0000    0.0000    0.0004   -0.0000    0.0000    0.0011   -0.0000
       65 TA     8d0        0.0000    0.0000    0.0000    0.0000   -0.0000   -0.0006    0.0000   -0.0000   -0.0016    0.0000
       66 TA     9d0       -0.0000   -0.0000   -0.0000   -0.0000    0.0000    0.0006   -0.0000    0.0000    0.0015    0.0000
       67 TA    10d0        0.0000    0.0000    0.0000    0.0000   -0.0001   -0.0010    0.0000   -0.0000   -0.0022   -0.0000
       68 TA    11d0       -0.0000   -0.0000   -0.0000   -0.0000    0.0001    0.0012   -0.0000    0.0000    0.0024    0.0000
       69 TA     3d1+      -0.0000   -0.0000    0.0007   -0.0000    0.0000   -0.0000    0.0481   -0.0000    0.0000   -0.0001
       70 TA     4d1+       0.0000    0.0000   -0.0002    0.0000   -0.0000    0.0000    0.0023   -0.0000   -0.0000   -0.0000
       71 TA     5d1+      -0.0000   -0.0000    0.0000   -0.0000    0.0000   -0.0000   -0.0005    0.0000    0.0000    0.0000
       72 TA     6d1+       0.0000    0.0000   -0.0001    0.0000   -0.0000    0.0000    0.0009   -0.0000   -0.0000   -0.0000
       73 TA     7d1+      -0.0000   -0.0000    0.0001   -0.0000    0.0000   -0.0000   -0.0011    0.0000    0.0000    0.0000
       74 TA     8d1+       0.0000    0.0000   -0.0001    0.0000   -0.0000    0.0000    0.0017   -0.0000   -0.0000   -0.0000
       75 TA     9d1+      -0.0000   -0.0000    0.0001   -0.0000    0.0000   -0.0000   -0.0016    0.0000    0.0000    0.0000
       76 TA    10d1+       0.0000    0.0000   -0.0001    0.0000   -0.0000    0.0000    0.0024   -0.0000   -0.0000   -0.0000
       77 TA    11d1+      -0.0000   -0.0000    0.0001   -0.0000    0.0000    0.0000   -0.0028    0.0000   -0.0000   -0.0000
       78 TA     3d2+       0.0000    0.0000   -0.0003    0.0000   -0.0000    0.0000   -0.0303    0.0000   -0.0000   -0.0002
       79 TA     4d2+      -0.0000   -0.0000    0.0001   -0.0000    0.0000    0.0000   -0.0017    0.0000   -0.0000   -0.0000
       80 TA     5d2+       0.0000    0.0000   -0.0000    0.0000   -0.0000   -0.0000    0.0004   -0.0000    0.0000    0.0000
       81 TA     6d2+      -0.0000   -0.0000    0.0000   -0.0000    0.0000    0.0000   -0.0007    0.0000   -0.0000   -0.0000
       82 TA     7d2+       0.0000    0.0000   -0.0000    0.0000   -0.0000   -0.0000    0.0008   -0.0000    0.0000    0.0000
       83 TA     8d2+      -0.0000   -0.0000    0.0000   -0.0000    0.0000    0.0000   -0.0013    0.0000   -0.0000   -0.0000
       84 TA     9d2+       0.0000    0.0000   -0.0000    0.0000   -0.0000   -0.0000    0.0012   -0.0000    0.0000    0.0000
       85 TA    10d2+      -0.0000   -0.0000    0.0000   -0.0000    0.0000    0.0000   -0.0018    0.0000   -0.0000   -0.0000
       86 TA    11d2+       0.0000    0.0000    0.0000   -0.0000   -0.0000   -0.0000    0.0020   -0.0000    0.0000   -0.0000
       87 TA     4f3-      -0.0000   -0.0000    0.0000    0.0000   -0.0000   -0.0000    0.0000    0.0000   -0.0000   -0.0000
       88 TA     5f3-       0.0000    0.0000   -0.0000   -0.0000    0.0000    0.0000   -0.0000   -0.0000   -0.0000    0.0000
       89 TA     6f3-      -0.0000   -0.0000    0.0000    0.0000   -0.0000   -0.0000    0.0000    0.0000    0.0000   -0.0000
       90 TA     7f3-       0.0000    0.0000   -0.0000   -0.0000   -0.0000    0.0000   -0.0000   -0.0000    0.0000    0.0000
       91 TA     8f3-      -0.0000   -0.0000    0.0000    0.0000    0.0000   -0.0000    0.0000    0.0000   -0.0000   -0.0000
       92 TA     9f3-       0.0000    0.0000   -0.0000   -0.0000   -0.0000    0.0000   -0.0000   -0.0000    0.0000    0.0000
       93 TA    10f3-      -0.0000   -0.0000    0.0000    0.0000    0.0000   -0.0000    0.0000    0.0000   -0.0000   -0.0000
       94 TA    11f3-       0.0000    0.0000   -0.0000   -0.0000   -0.0000   -0.0000   -0.0000   -0.0000    0.0000   -0.0000
       95 TA     4f2-       0.0000    0.0000   -0.0000   -0.0000   -0.0000   -0.0000   -0.0000   -0.0033    0.0000    0.0038
       96 TA     5f2-      -0.0000   -0.0000    0.0000    0.0000   -0.0000    0.0000    0.0000    0.0026   -0.0000   -0.0030
       97 TA     6f2-       0.0000    0.0000   -0.0000   -0.0000    0.0000   -0.0000   -0.0000   -0.0022    0.0000    0.0025
       98 TA     7f2-      -0.0000   -0.0000    0.0000    0.0000   -0.0000    0.0000    0.0000    0.0021   -0.0000   -0.0024
       99 TA     8f2-       0.0000    0.0000   -0.0000   -0.0001    0.0000   -0.0000   -0.0000   -0.0019    0.0000    0.0021
      100 TA     9f2-       0.0000   -0.0000    0.0000    0.0001   -0.0000    0.0000    0.0000    0.0015   -0.0000   -0.0017
      101 TA    10f2-      -0.0000    0.0000   -0.0000   -0.0001    0.0000   -0.0000   -0.0000   -0.0011    0.0000    0.0013
      102 TA    11f2-       0.0000   -0.0000    0.0000    0.0001   -0.0000    0.0000    0.0000    0.0003   -0.0000   -0.0009
      103 TA     4f1-       0.0000    0.0000   -0.0000   -0.0000   -0.0000   -0.0000   -0.0000   -0.0016   -0.0000   -0.0014
      104 TA     5f1-      -0.0000   -0.0000    0.0000    0.0000    0.0000    0.0000    0.0000    0.0013    0.0000    0.0011
      105 TA     6f1-       0.0000    0.0000   -0.0000   -0.0000   -0.0000   -0.0000   -0.0000   -0.0011   -0.0000   -0.0009
      106 TA     7f1-      -0.0000   -0.0000    0.0000    0.0000    0.0000    0.0000    0.0000    0.0011    0.0000    0.0009
      107 TA     8f1-       0.0000    0.0000   -0.0000   -0.0000   -0.0000   -0.0000   -0.0000   -0.0010   -0.0000   -0.0008
      108 TA     9f1-      -0.0000   -0.0000    0.0000    0.0000    0.0000    0.0000    0.0000    0.0008    0.0000    0.0007
      109 TA    10f1-       0.0000    0.0000   -0.0000   -0.0000   -0.0000   -0.0000   -0.0000   -0.0006   -0.0000   -0.0005
      110 TA    11f1-      -0.0000   -0.0000    0.0000    0.0001    0.0000    0.0000    0.0000    0.0003    0.0000    0.0005
      111 TA     4f0       -0.0000   -0.0001    0.0000    0.0000   -0.0000   -0.0063   -0.0000    0.0000   -0.0022   -0.0000
      112 TA     5f0        0.0000    0.0001   -0.0000   -0.0000    0.0000    0.0052    0.0000   -0.0000    0.0018    0.0000
      113 TA     6f0       -0.0000   -0.0001    0.0000    0.0000   -0.0000   -0.0044   -0.0000    0.0000   -0.0015   -0.0000
      114 TA     7f0        0.0000    0.0001   -0.0000   -0.0000    0.0000    0.0044    0.0000   -0.0000    0.0014    0.0000
      115 TA     8f0       -0.0000   -0.0001    0.0000    0.0000   -0.0001   -0.0041   -0.0000    0.0000   -0.0013   -0.0000
      116 TA     9f0        0.0000    0.0001   -0.0000   -0.0000    0.0001    0.0033   -0.0000   -0.0000    0.0011    0.0000
      117 TA    10f0       -0.0000   -0.0001    0.0000    0.0000   -0.0001   -0.0025    0.0000    0.0000   -0.0008   -0.0000
      118 TA    11f0        0.0000    0.0002   -0.0000   -0.0000    0.0001    0.0011   -0.0000   -0.0000    0.0004    0.0000
      119 TA     4f1+       0.0000    0.0000   -0.0000    0.0000   -0.0000    0.0000   -0.0016    0.0000   -0.0000   -0.0000
      120 TA     5f1+      -0.0000   -0.0000    0.0000   -0.0000    0.0000   -0.0000    0.0013   -0.0000    0.0000    0.0000
      121 TA     6f1+       0.0000    0.0000   -0.0000    0.0000   -0.0000    0.0000   -0.0011    0.0000   -0.0000   -0.0000
      122 TA     7f1+      -0.0000   -0.0000    0.0000   -0.0000    0.0000   -0.0000    0.0011   -0.0000    0.0000    0.0000
      123 TA     8f1+       0.0000    0.0000   -0.0000    0.0000   -0.0000    0.0000   -0.0010    0.0000   -0.0000   -0.0000
      124 TA     9f1+      -0.0000   -0.0000    0.0000   -0.0000    0.0000   -0.0000    0.0008   -0.0000    0.0000    0.0000
      125 TA    10f1+       0.0000    0.0000   -0.0000    0.0000   -0.0000    0.0000   -0.0006    0.0000   -0.0000   -0.0000
      126 TA    11f1+      -0.0000   -0.0000    0.0001   -0.0000    0.0000   -0.0000    0.0003   -0.0000    0.0000    0.0000
      127 TA     4f2+      -0.0000   -0.0000    0.0000   -0.0000    0.0000   -0.0000    0.0033   -0.0000    0.0000   -0.0000
      128 TA     5f2+       0.0000    0.0000   -0.0000    0.0000   -0.0000    0.0000   -0.0026    0.0000   -0.0000    0.0000
      129 TA     6f2+      -0.0000   -0.0000    0.0000   -0.0000    0.0000   -0.0000    0.0022   -0.0000    0.0000   -0.0000
      130 TA     7f2+       0.0000    0.0000   -0.0000    0.0000   -0.0000    0.0000   -0.0021    0.0000   -0.0000    0.0000
      131 TA     8f2+      -0.0000   -0.0000    0.0001   -0.0000    0.0000   -0.0000    0.0019   -0.0000    0.0000   -0.0000
      132 TA     9f2+       0.0000    0.0000   -0.0001    0.0000   -0.0000    0.0000   -0.0015    0.0000   -0.0000    0.0000
      133 TA    10f2+      -0.0000   -0.0000    0.0001   -0.0000    0.0000   -0.0000    0.0011   -0.0000    0.0000   -0.0000
      134 TA    11f2+       0.0000    0.0000   -0.0001    0.0000   -0.0000    0.0000   -0.0003    0.0000   -0.0000    0.0000
      135 TA     4f3+      -0.0000   -0.0001    0.0000   -0.0000    0.0000   -0.0041    0.0000   -0.0000    0.0031   -0.0000
      136 TA     5f3+       0.0000    0.0001   -0.0000    0.0000   -0.0000    0.0034   -0.0000    0.0000   -0.0025    0.0000
      137 TA     6f3+      -0.0000   -0.0001    0.0000   -0.0000    0.0000   -0.0029    0.0000   -0.0000    0.0021   -0.0000
      138 TA     7f3+       0.0000    0.0001   -0.0000    0.0000   -0.0000    0.0029   -0.0000    0.0000   -0.0021    0.0000
      139 TA     8f3+      -0.0000   -0.0001    0.0000   -0.0000    0.0000   -0.0027    0.0000   -0.0000    0.0019   -0.0000
      140 TA     9f3+       0.0000    0.0001   -0.0000    0.0000   -0.0000    0.0021   -0.0000    0.0000   -0.0014    0.0000
      141 TA    10f3+      -0.0000   -0.0001    0.0000   -0.0000    0.0000   -0.0016    0.0000   -0.0000    0.0011   -0.0000
      142 TA    11f3+       0.0000    0.0001   -0.0000    0.0000   -0.0001    0.0007   -0.0000    0.0000   -0.0003    0.0000
      143 TA     5g4-       0.0000   -0.0000   -0.0000   -0.0000   -0.0000   -0.0000   -0.0000   -0.0004    0.0000   -0.0000
      144 TA     6g4-      -0.0000    0.0000    0.0000    0.0000    0.0000    0.0000    0.0000    0.0004   -0.0000    0.0000
      145 TA     7g4-       0.0000   -0.0000   -0.0000   -0.0000   -0.0000   -0.0000   -0.0000   -0.0003    0.0000   -0.0000
      146 TA     8g4-      -0.0000    0.0000    0.0000    0.0000    0.0000    0.0000    0.0000    0.0003   -0.0000    0.0000
      147 TA     5g3-       0.0000   -0.0000   -0.0000   -0.0000   -0.0000   -0.0000    0.0000   -0.0000    0.0000   -0.0000
      148 TA     6g3-      -0.0000    0.0000    0.0000    0.0000    0.0000   -0.0000   -0.0000    0.0000   -0.0000    0.0000
      149 TA     7g3-       0.0000   -0.0000   -0.0000   -0.0000   -0.0000    0.0000    0.0000   -0.0000    0.0000   -0.0000
      150 TA     8g3-      -0.0000    0.0000    0.0000    0.0000    0.0000   -0.0000   -0.0000    0.0000   -0.0000    0.0000
      151 TA     5g2-       0.0000    0.0000   -0.0000   -0.0000    0.0000    0.0000    0.0000    0.0001   -0.0000   -0.0001
      152 TA     6g2-       0.0000   -0.0000    0.0000    0.0000   -0.0000    0.0000   -0.0000   -0.0001    0.0000    0.0001
      153 TA     7g2-      -0.0000    0.0000    0.0000    0.0000    0.0000   -0.0000    0.0000    0.0001   -0.0000   -0.0001
      154 TA     8g2-       0.0000   -0.0000   -0.0000   -0.0000   -0.0000    0.0000   -0.0000   -0.0000    0.0000    0.0000
      155 TA     5g1-      -0.0000    0.0000   -0.0000   -0.0000   -0.0000   -0.0000   -0.0000   -0.0005    0.0000    0.0002
      156 TA     6g1-       0.0000   -0.0000    0.0000    0.0000    0.0000    0.0000    0.0000    0.0005   -0.0000   -0.0002
      157 TA     7g1-      -0.0000    0.0000   -0.0000   -0.0000   -0.0000   -0.0000   -0.0000   -0.0004    0.0000    0.0002
      158 TA     8g1-       0.0000   -0.0000    0.0000    0.0000    0.0000    0.0000    0.0000    0.0003   -0.0000   -0.0001
      159 TA     5g0       -0.0000   -0.0000    0.0000   -0.0000   -0.0000   -0.0000    0.0000    0.0000   -0.0008    0.0000
      160 TA     6g0        0.0000    0.0000   -0.0000    0.0000    0.0000    0.0000   -0.0000   -0.0000    0.0009   -0.0000
      161 TA     7g0       -0.0000   -0.0000    0.0000   -0.0000   -0.0000   -0.0000    0.0000    0.0000   -0.0007    0.0000
      162 TA     8g0        0.0000    0.0000   -0.0000    0.0000    0.0000    0.0000   -0.0000   -0.0000    0.0005   -0.0000
      163 TA     5g1+      -0.0000   -0.0000   -0.0000    0.0000    0.0000   -0.0000   -0.0005    0.0000    0.0000    0.0000
      164 TA     6g1+       0.0000    0.0000    0.0000   -0.0000   -0.0000    0.0000    0.0005   -0.0000   -0.0000   -0.0000
      165 TA     7g1+      -0.0000   -0.0000   -0.0000    0.0000   -0.0000   -0.0000   -0.0004    0.0000    0.0000    0.0000
      166 TA     8g1+       0.0000    0.0000    0.0000   -0.0000    0.0000    0.0000    0.0003   -0.0000   -0.0000   -0.0000
      167 TA     5g2+       0.0000    0.0000    0.0000   -0.0000    0.0000    0.0000   -0.0001    0.0000   -0.0000    0.0000
      168 TA     6g2+      -0.0000   -0.0000   -0.0000    0.0000   -0.0000   -0.0000    0.0001   -0.0000    0.0000   -0.0000
      169 TA     7g2+       0.0000    0.0000   -0.0000    0.0000    0.0000    0.0000   -0.0001    0.0000   -0.0000    0.0000
      170 TA     8g2+      -0.0000   -0.0000    0.0000   -0.0000   -0.0000   -0.0000    0.0000   -0.0000    0.0000   -0.0000
      171 TA     5g3+       0.0000    0.0000   -0.0000   -0.0000   -0.0000    0.0004    0.0000    0.0000   -0.0005    0.0000
      172 TA     6g3+      -0.0000   -0.0000    0.0000    0.0000    0.0000   -0.0005   -0.0000   -0.0000    0.0006   -0.0000
      173 TA     7g3+       0.0000    0.0000   -0.0000   -0.0000   -0.0000    0.0004    0.0000    0.0000   -0.0005    0.0000
      174 TA     8g3+      -0.0000   -0.0000    0.0000    0.0000    0.0000   -0.0003   -0.0000   -0.0000    0.0003   -0.0000
      175 TA     5g4+      -0.0000   -0.0000   -0.0000    0.0000   -0.0000   -0.0000   -0.0004    0.0000    0.0000   -0.0000
      176 TA     6g4+       0.0000    0.0000    0.0000   -0.0000    0.0000    0.0000    0.0004   -0.0000   -0.0000    0.0000
      177 TA     7g4+      -0.0000   -0.0000   -0.0000    0.0000   -0.0000   -0.0000   -0.0003    0.0000    0.0000   -0.0000
      178 TA     8g4+       0.0000    0.0000    0.0000   -0.0000    0.0000    0.0000    0.0003   -0.0000   -0.0000    0.0000
      179 TA     6h5-      -0.0000    0.0000    0.0000    0.0000    0.0000   -0.0000    0.0000    0.0000    0.0000   -0.0000
      180 TA     7h5-      -0.0000   -0.0000   -0.0000   -0.0000   -0.0000    0.0000   -0.0000   -0.0000   -0.0000    0.0000
      181 TA     6h4-      -0.0000   -0.0000    0.0000    0.0000   -0.0000    0.0000    0.0000    0.0000   -0.0000    0.0000
      182 TA     7h4-       0.0000    0.0000   -0.0000   -0.0000    0.0000   -0.0000   -0.0000   -0.0000    0.0000   -0.0000
      183 TA     6h3-      -0.0000   -0.0000   -0.0000    0.0000   -0.0000    0.0000   -0.0000    0.0000   -0.0000    0.0000
      184 TA     7h3-       0.0000    0.0000    0.0000   -0.0000    0.0000   -0.0000    0.0000   -0.0000    0.0000   -0.0000
      185 TA     6h2-      -0.0000    0.0000    0.0000    0.0000    0.0000   -0.0000    0.0000    0.0000    0.0000   -0.0000
      186 TA     7h2-      -0.0000   -0.0000   -0.0000   -0.0000   -0.0000    0.0000   -0.0000   -0.0000   -0.0000    0.0000
      187 TA     6h1-      -0.0000   -0.0000    0.0000    0.0000   -0.0000    0.0000    0.0000    0.0000   -0.0000    0.0000
      188 TA     7h1-       0.0000    0.0000   -0.0000   -0.0000    0.0000   -0.0000   -0.0000   -0.0000    0.0000   -0.0000
      189 TA     6h0       -0.0000   -0.0000    0.0000   -0.0000   -0.0000   -0.0000    0.0000   -0.0000   -0.0001   -0.0000
      190 TA     7h0        0.0000    0.0000   -0.0000    0.0000    0.0000    0.0000   -0.0000    0.0000    0.0001    0.0000
      191 TA     6h1+       0.0000    0.0000    0.0000   -0.0000    0.0000    0.0000    0.0000   -0.0000    0.0000    0.0000
      192 TA     7h1+      -0.0000   -0.0000   -0.0000    0.0000   -0.0000   -0.0000   -0.0000    0.0000   -0.0000   -0.0000
      193 TA     6h2+       0.0000    0.0000   -0.0000    0.0000    0.0000   -0.0000   -0.0000    0.0000    0.0000    0.0000
      194 TA     7h2+      -0.0000   -0.0000    0.0000   -0.0000   -0.0000    0.0000    0.0000   -0.0000   -0.0000   -0.0000
      195 TA     6h3+       0.0000    0.0000   -0.0000   -0.0000    0.0000   -0.0000   -0.0000   -0.0000    0.0000   -0.0000
      196 TA     7h3+      -0.0000    0.0000    0.0000    0.0000   -0.0000    0.0000    0.0000    0.0000   -0.0000    0.0000
      197 TA     6h4+       0.0000   -0.0000    0.0000   -0.0000   -0.0000    0.0000    0.0000   -0.0000   -0.0000    0.0000
      198 TA     7h4+       0.0000    0.0000   -0.0000    0.0000    0.0000   -0.0000   -0.0000    0.0000    0.0000   -0.0000
      199 TA     6h5+      -0.0000   -0.0000   -0.0000    0.0000    0.0000    0.0000   -0.0000    0.0000    0.0000    0.0000
      200 TA     7h5+       0.0000    0.0000    0.0000   -0.0000    0.0000   -0.0000    0.0000   -0.0000   -0.0000   -0.0000

          Orbital           11        12        13        14        15        16        17        18        19        20    
          Energy          -63.4071  -62.5868  -62.4907  -62.4907  -20.9386  -15.7959  -15.7959  -15.5769   -8.8638   -8.8638
          Occ. No.          2.0000    2.0000    2.0000    2.0000    2.0000    2.0000    2.0000    2.0000    2.0000    2.0000

        1 TA     1s         0.0000    0.0000    0.0000    0.0000    0.0000    0.0000   -0.0000   -0.0000   -0.0000   -0.0000
        2 TA     2s         0.0000    0.0003    0.0000   -0.0000   -0.0001   -0.0000    0.0000    0.0001   -0.0000   -0.0000
        3 TA     3s         0.0000    0.0110    0.0000   -0.0000   -0.0040    0.0000   -0.0000    0.0002    0.0000    0.0000
        4 TA     4s        -0.0000   -0.0003    0.0000   -0.0000    0.9980    0.0000   -0.0000   -0.0457    0.0000    0.0000
        5 TA     5s         0.0000    0.0002   -0.0000    0.0000    0.0218    0.0000    0.0000   -0.0058    0.0000    0.0000
        6 TA     6s        -0.0000   -0.0001    0.0000   -0.0000   -0.0054   -0.0000   -0.0000    0.0012   -0.0000   -0.0000
        7 TA     7s         0.0000    0.0001   -0.0000    0.0000    0.0086    0.0000    0.0000   -0.0019    0.0000    0.0000
        8 TA     8s        -0.0000   -0.0003    0.0000   -0.0000   -0.0160   -0.0000   -0.0000    0.0033   -0.0000   -0.0000
        9 TA     9s         0.0000    0.0004   -0.0000    0.0000    0.0143    0.0000    0.0000   -0.0027    0.0000    0.0000
       10 TA    10s        -0.0000   -0.0003    0.0000   -0.0000   -0.0071   -0.0000    0.0000    0.0013   -0.0000   -0.0000
       11 TA    11s         0.0000    0.0007   -0.0000    0.0000    0.0083    0.0000   -0.0000   -0.0012    0.0000    0.0000
       12 TA     2px        0.0001   -0.0000   -0.0008    0.0000    0.0000   -0.0001    0.0000   -0.0000   -0.0000   -0.0000
       13 TA     3px        0.0003   -0.0000   -0.0567    0.0000    0.0000   -0.0050    0.0000   -0.0000   -0.0000   -0.0002
       14 TA     4px        0.0004    0.0000    0.0008   -0.0000   -0.0000    0.9975   -0.0002   -0.0000    0.0000    0.0022
       15 TA     5px       -0.0001   -0.0000   -0.0006    0.0000    0.0000    0.0224   -0.0000   -0.0000   -0.0000   -0.0008
       16 TA     6px        0.0001    0.0000    0.0003   -0.0000   -0.0000   -0.0083    0.0000    0.0000    0.0000    0.0003
       17 TA     7px       -0.0002   -0.0000   -0.0009    0.0000    0.0000    0.0206   -0.0000   -0.0000   -0.0000   -0.0006
       18 TA     8px        0.0002    0.0000    0.0010   -0.0000   -0.0000   -0.0141    0.0000    0.0000    0.0000    0.0002
       19 TA     9px       -0.0002   -0.0000   -0.0011    0.0000    0.0000    0.0098   -0.0000   -0.0000   -0.0000   -0.0001
       20 TA    10px        0.0002    0.0000    0.0014   -0.0000   -0.0000   -0.0070    0.0000    0.0000    0.0000    0.0001
       21 TA    11px       -0.0003   -0.0000   -0.0025    0.0000   -0.0000    0.0034   -0.0000   -0.0000   -0.0000   -0.0000
       22 TA     2py       -0.0000    0.0000    0.0000    0.0008    0.0000   -0.0000   -0.0001   -0.0000   -0.0000    0.0000
       23 TA     3py       -0.0000    0.0000    0.0000    0.0567   -0.0000   -0.0000   -0.0050   -0.0000   -0.0002    0.0000
       24 TA     4py       -0.0000   -0.0000   -0.0000   -0.0008    0.0000    0.0002    0.9975    0.0000    0.0022   -0.0000
       25 TA     5py        0.0000    0.0000    0.0000    0.0006    0.0000    0.0000    0.0224    0.0000   -0.0008    0.0000
       26 TA     6py       -0.0000   -0.0000   -0.0000   -0.0003   -0.0000   -0.0000   -0.0083   -0.0000    0.0003   -0.0000
       27 TA     7py        0.0000    0.0000    0.0000    0.0009    0.0000    0.0000    0.0206    0.0000   -0.0006    0.0000
       28 TA     8py       -0.0000   -0.0000   -0.0000   -0.0010   -0.0000   -0.0000   -0.0141   -0.0000    0.0002   -0.0000
       29 TA     9py        0.0000    0.0000    0.0000    0.0011    0.0000    0.0000    0.0098    0.0000   -0.0001    0.0000
       30 TA    10py       -0.0000   -0.0000   -0.0000   -0.0014   -0.0000   -0.0000   -0.0070   -0.0000    0.0001   -0.0000
       31 TA    11py        0.0000   -0.0000    0.0000    0.0025    0.0000    0.0000    0.0034    0.0000   -0.0000    0.0000
       32 TA     2pz       -0.0000    0.0000   -0.0000    0.0000    0.0000   -0.0000    0.0000   -0.0002    0.0000    0.0000
       33 TA     3pz       -0.0000    0.0290   -0.0000    0.0000   -0.0004   -0.0000    0.0000   -0.0044   -0.0000   -0.0000
       34 TA     4pz        0.0000   -0.0016   -0.0000   -0.0000    0.0459    0.0000   -0.0000    0.9975   -0.0000   -0.0000
       35 TA     5pz       -0.0000    0.0007   -0.0000    0.0000   -0.0022    0.0000   -0.0000    0.0280   -0.0000   -0.0000
       36 TA     6pz        0.0000   -0.0003    0.0000   -0.0000    0.0008   -0.0000    0.0000   -0.0104    0.0000    0.0000
       37 TA     7pz       -0.0000    0.0010   -0.0000    0.0000   -0.0020    0.0000   -0.0000    0.0257   -0.0000   -0.0000
       38 TA     8pz        0.0000   -0.0011    0.0000   -0.0000    0.0013   -0.0000    0.0000   -0.0175    0.0000    0.0000
       39 TA     9pz       -0.0000    0.0012   -0.0000    0.0000   -0.0009    0.0000   -0.0000    0.0121   -0.0000   -0.0000
       40 TA    10pz        0.0000   -0.0013    0.0000   -0.0000    0.0006   -0.0000    0.0000   -0.0085    0.0000    0.0000
       41 TA    11pz       -0.0000    0.0022   -0.0000    0.0000   -0.0001    0.0000   -0.0000    0.0038   -0.0000   -0.0000
       42 TA     3d2-      -0.0002    0.0000   -0.0000   -0.5365   -0.0000   -0.0000   -0.0008    0.0000   -0.0049    0.0000
       43 TA     4d2-      -0.0000    0.0000   -0.0000   -0.0009    0.0000    0.0000    0.0289   -0.0000    0.8516   -0.0021
       44 TA     5d2-       0.0000   -0.0000    0.0000    0.0000   -0.0000   -0.0000   -0.0025   -0.0000    0.0178   -0.0000
       45 TA     6d2-      -0.0000    0.0000    0.0000    0.0000    0.0000    0.0000    0.0033    0.0000   -0.0223    0.0001
       46 TA     7d2-       0.0000   -0.0000   -0.0000   -0.0001   -0.0000   -0.0000   -0.0031   -0.0000    0.0194   -0.0000
       47 TA     8d2-      -0.0000   -0.0000    0.0000    0.0005    0.0000    0.0000    0.0028    0.0000   -0.0164    0.0000
       48 TA     9d2-       0.0000    0.0000   -0.0000   -0.0008   -0.0000   -0.0000   -0.0015   -0.0000    0.0091   -0.0000
       49 TA    10d2-      -0.0000   -0.0000    0.0000    0.0016   -0.0000    0.0000    0.0010    0.0000   -0.0069    0.0000
       50 TA    11d2-      -0.0000    0.0000   -0.0000   -0.0025    0.0000    0.0000    0.0004    0.0000    0.0022   -0.0000
       51 TA     3d1-       0.0001    0.0000   -0.0000   -0.8419   -0.0000   -0.0000   -0.0007   -0.0000    0.0032   -0.0000
       52 TA     4d1-       0.0000    0.0000   -0.0000   -0.0021    0.0000    0.0000    0.0511    0.0000   -0.5213    0.0013
       53 TA     5d1-      -0.0000   -0.0000    0.0000    0.0002    0.0000   -0.0000   -0.0037    0.0000   -0.0113    0.0000
       54 TA     6d1-       0.0000   -0.0000   -0.0000   -0.0002   -0.0000    0.0000    0.0049   -0.0000    0.0140   -0.0000
       55 TA     7d1-      -0.0000    0.0000    0.0000    0.0001    0.0000   -0.0000   -0.0046    0.0000   -0.0121    0.0000
       56 TA     8d1-       0.0000   -0.0000    0.0000    0.0004   -0.0000    0.0000    0.0041   -0.0000    0.0101   -0.0000
       57 TA     9d1-      -0.0000    0.0000   -0.0000   -0.0009    0.0000   -0.0000   -0.0021    0.0000   -0.0056    0.0000
       58 TA    10d1-       0.0000   -0.0000    0.0000    0.0019    0.0000    0.0000    0.0013   -0.0000    0.0041   -0.0000
       59 TA    11d1-       0.0000    0.0000   -0.0000   -0.0034   -0.0000    0.0000    0.0007    0.0000   -0.0014    0.0000
       60 TA     3d0        0.0000    0.9995   -0.0000    0.0000    0.0004   -0.0000    0.0000    0.0016   -0.0000   -0.0000
       61 TA     4d0        0.0000    0.0029   -0.0000   -0.0000   -0.0112    0.0000   -0.0000   -0.0207    0.0000    0.0000
       62 TA     5d0       -0.0000   -0.0004    0.0000   -0.0000    0.0014   -0.0000   -0.0000    0.0025    0.0000    0.0000
       63 TA     6d0        0.0000    0.0005   -0.0000    0.0000   -0.0020    0.0000    0.0000   -0.0034   -0.0000   -0.0000
       64 TA     7d0       -0.0000   -0.0004    0.0000   -0.0000    0.0021   -0.0000   -0.0000    0.0033    0.0000    0.0000
       65 TA     8d0        0.0000   -0.0001   -0.0000   -0.0000   -0.0022    0.0000    0.0000   -0.0031   -0.0000   -0.0000
       66 TA     9d0        0.0000    0.0006   -0.0000    0.0000    0.0014   -0.0000   -0.0000    0.0018    0.0000    0.0000
       67 TA    10d0       -0.0000   -0.0018    0.0000   -0.0000   -0.0010   -0.0000    0.0000   -0.0013   -0.0000   -0.0000
       68 TA    11d0        0.0000    0.0035   -0.0000    0.0000   -0.0002    0.0000   -0.0000   -0.0003    0.0000    0.0000
       69 TA     3d1+      -0.5374    0.0000    0.8419   -0.0000   -0.0000   -0.0007    0.0000    0.0000    0.0000    0.0032
       70 TA     4d1+      -0.0034    0.0000    0.0021   -0.0000   -0.0000    0.0511   -0.0000   -0.0000   -0.0013   -0.5213
       71 TA     5d1+       0.0006   -0.0000   -0.0002    0.0000   -0.0000   -0.0037    0.0000    0.0000   -0.0000   -0.0113
       72 TA     6d1+      -0.0009    0.0000    0.0002   -0.0000    0.0000    0.0049   -0.0000   -0.0000    0.0000    0.0140
       73 TA     7d1+       0.0010   -0.0000   -0.0001    0.0000   -0.0000   -0.0046    0.0000    0.0000   -0.0000   -0.0121
       74 TA     8d1+      -0.0011   -0.0000   -0.0004    0.0000    0.0000    0.0041   -0.0000   -0.0000    0.0000    0.0101
       75 TA     9d1+       0.0007    0.0000    0.0009   -0.0000   -0.0000   -0.0021    0.0000    0.0000   -0.0000   -0.0056
       76 TA    10d1+      -0.0006   -0.0000   -0.0019    0.0000    0.0000    0.0013   -0.0000   -0.0000    0.0000    0.0041
       77 TA    11d1+      -0.0001    0.0000    0.0034   -0.0000   -0.0000    0.0007   -0.0000   -0.0000   -0.0000   -0.0014
       78 TA     3d2+      -0.8432   -0.0000   -0.5365    0.0000    0.0000    0.0008   -0.0000   -0.0000    0.0000    0.0049
       79 TA     4d2+      -0.0048    0.0000   -0.0009    0.0000    0.0000   -0.0289    0.0000   -0.0000   -0.0021   -0.8516
       80 TA     5d2+       0.0007   -0.0000    0.0000   -0.0000   -0.0000    0.0025   -0.0000    0.0000   -0.0000   -0.0178
       81 TA     6d2+      -0.0011    0.0000    0.0000   -0.0000    0.0000   -0.0033    0.0000   -0.0000    0.0001    0.0223
       82 TA     7d2+       0.0012   -0.0000   -0.0001    0.0000   -0.0000    0.0031   -0.0000    0.0000   -0.0000   -0.0194
       83 TA     8d2+      -0.0014    0.0000    0.0005   -0.0000    0.0000   -0.0028    0.0000   -0.0000    0.0000    0.0164
       84 TA     9d2+       0.0008   -0.0000   -0.0008    0.0000   -0.0000    0.0015   -0.0000    0.0000   -0.0000   -0.0091
       85 TA    10d2+      -0.0005    0.0000    0.0016   -0.0000    0.0000   -0.0010    0.0000   -0.0000    0.0000    0.0069
       86 TA    11d2+      -0.0006   -0.0000   -0.0025    0.0000    0.0000   -0.0004    0.0000   -0.0000   -0.0000   -0.0022
       87 TA     4f3-      -0.0000    0.0000   -0.0000    0.0000    0.0000    0.0000    0.0000   -0.0000   -0.0000    0.0000
       88 TA     5f3-       0.0000   -0.0000    0.0000   -0.0000    0.0000   -0.0000   -0.0000   -0.0000    0.0000   -0.0000
       89 TA     6f3-      -0.0000    0.0000   -0.0000    0.0000   -0.0000    0.0000    0.0000    0.0000   -0.0000    0.0000
       90 TA     7f3-       0.0000    0.0000    0.0000   -0.0000    0.0000   -0.0000    0.0000   -0.0000   -0.0000   -0.0000
       91 TA     8f3-      -0.0000   -0.0000   -0.0000    0.0000   -0.0000   -0.0000   -0.0000    0.0000    0.0000   -0.0000
       92 TA     9f3-       0.0000    0.0000    0.0000   -0.0000   -0.0000    0.0000    0.0000    0.0000   -0.0000    0.0000
       93 TA    10f3-      -0.0000   -0.0000   -0.0000    0.0000    0.0000   -0.0000   -0.0000   -0.0000    0.0000   -0.0000
       94 TA    11f3-       0.0000    0.0000    0.0000   -0.0000   -0.0000    0.0000    0.0000    0.0000   -0.0000    0.0000
       95 TA     4f2-      -0.0000    0.0000   -0.0000   -0.0084   -0.0000   -0.0000   -0.0078    0.0000    0.0241   -0.0001
       96 TA     5f2-       0.0000   -0.0000    0.0000    0.0067    0.0000    0.0000    0.0035   -0.0000   -0.0067    0.0000
       97 TA     6f2-      -0.0000    0.0000   -0.0000   -0.0055   -0.0000   -0.0000   -0.0018   -0.0000    0.0022   -0.0000
       98 TA     7f2-       0.0000   -0.0000    0.0000    0.0052   -0.0000    0.0000    0.0008    0.0000   -0.0002    0.0000
       99 TA     8f2-      -0.0000    0.0000   -0.0000   -0.0046    0.0000   -0.0000   -0.0001   -0.0000   -0.0006    0.0000
      100 TA     9f2-       0.0000   -0.0000    0.0000    0.0036    0.0000   -0.0000   -0.0004    0.0000    0.0009   -0.0000
      101 TA    10f2-      -0.0000    0.0000   -0.0000   -0.0027   -0.0000    0.0000    0.0005   -0.0000   -0.0008    0.0000
      102 TA    11f2-       0.0000   -0.0000    0.0000    0.0012   -0.0000   -0.0000   -0.0010   -0.0000    0.0011   -0.0000
      103 TA     4f1-       0.0000    0.0000   -0.0000   -0.0015   -0.0000   -0.0000   -0.0033   -0.0000   -0.0096    0.0000
      104 TA     5f1-      -0.0000   -0.0000    0.0000    0.0012    0.0000    0.0000    0.0018    0.0000    0.0016   -0.0000
      105 TA     6f1-       0.0000    0.0000   -0.0000   -0.0010   -0.0000   -0.0000   -0.0010   -0.0000   -0.0004    0.0000
      106 TA     7f1-      -0.0000   -0.0000    0.0000    0.0009    0.0000    0.0000    0.0004    0.0000   -0.0001    0.0000
      107 TA     8f1-       0.0000    0.0000   -0.0000   -0.0008    0.0000    0.0000    0.0001    0.0000    0.0003   -0.0000
      108 TA     9f1-      -0.0000   -0.0000    0.0000    0.0007   -0.0000   -0.0000   -0.0004   -0.0000   -0.0004    0.0000
      109 TA    10f1-       0.0000    0.0000   -0.0000   -0.0005    0.0000    0.0000    0.0004    0.0000    0.0003   -0.0000
      110 TA    11f1-      -0.0000   -0.0000    0.0000    0.0004   -0.0000   -0.0000   -0.0006   -0.0000   -0.0004    0.0000
      111 TA     4f0       -0.0000   -0.0038    0.0000    0.0000   -0.0172   -0.0000    0.0000   -0.0050   -0.0000   -0.0000
      112 TA     5f0        0.0000    0.0030   -0.0000   -0.0000    0.0087    0.0000   -0.0000    0.0023    0.0000    0.0000
      113 TA     6f0       -0.0000   -0.0025    0.0000    0.0000   -0.0045   -0.0000    0.0000   -0.0013   -0.0000   -0.0000
      114 TA     7f0        0.0000    0.0024   -0.0000   -0.0000    0.0020    0.0000   -0.0000    0.0006    0.0000    0.0000
      115 TA     8f0       -0.0000   -0.0021    0.0000    0.0000    0.0002   -0.0000    0.0000    0.0001   -0.0000   -0.0000
      116 TA     9f0        0.0000    0.0015   -0.0000   -0.0000   -0.0015    0.0000    0.0000   -0.0005   -0.0000   -0.0000
      117 TA    10f0       -0.0000   -0.0011    0.0000    0.0000    0.0017    0.0000   -0.0000    0.0006    0.0000    0.0000
      118 TA    11f0        0.0000    0.0001    0.0000   -0.0000   -0.0028   -0.0000    0.0000   -0.0008   -0.0000   -0.0000
      119 TA     4f1+      -0.0014   -0.0000    0.0015   -0.0000    0.0000   -0.0033    0.0000   -0.0000   -0.0000   -0.0096
      120 TA     5f1+       0.0011   -0.0000   -0.0012    0.0000   -0.0000    0.0018   -0.0000    0.0000    0.0000    0.0016
      121 TA     6f1+      -0.0009    0.0000    0.0010   -0.0000    0.0000   -0.0010    0.0000    0.0000   -0.0000   -0.0004
      122 TA     7f1+       0.0009   -0.0000   -0.0009    0.0000   -0.0000    0.0004   -0.0000   -0.0000   -0.0000   -0.0001
      123 TA     8f1+      -0.0008    0.0000    0.0008   -0.0000   -0.0000    0.0001   -0.0000    0.0000    0.0000    0.0003
      124 TA     9f1+       0.0007   -0.0000   -0.0007    0.0000    0.0000   -0.0004    0.0000   -0.0000   -0.0000   -0.0004
      125 TA    10f1+      -0.0005    0.0000    0.0005   -0.0000   -0.0000    0.0004   -0.0000    0.0000    0.0000    0.0003
      126 TA    11f1+       0.0005   -0.0000   -0.0004    0.0000    0.0000   -0.0006    0.0000   -0.0000   -0.0000   -0.0004
      127 TA     4f2+      -0.0038   -0.0000   -0.0084    0.0000   -0.0000    0.0078   -0.0000    0.0000   -0.0001   -0.0241
      128 TA     5f2+       0.0030    0.0000    0.0067   -0.0000    0.0000   -0.0035    0.0000   -0.0000    0.0000    0.0067
      129 TA     6f2+      -0.0025   -0.0000   -0.0055    0.0000   -0.0000    0.0018   -0.0000    0.0000   -0.0000   -0.0022
      130 TA     7f2+       0.0024    0.0000    0.0052   -0.0000   -0.0000   -0.0008    0.0000    0.0000    0.0000    0.0002
      131 TA     8f2+      -0.0021   -0.0000   -0.0046    0.0000    0.0000    0.0001   -0.0000   -0.0000    0.0000    0.0006
      132 TA     9f2+       0.0017    0.0000    0.0036   -0.0000   -0.0000    0.0004   -0.0000    0.0000   -0.0000   -0.0009
      133 TA    10f2+      -0.0013   -0.0000   -0.0027    0.0000    0.0000   -0.0005    0.0000   -0.0000    0.0000    0.0008
      134 TA    11f2+       0.0009    0.0000    0.0012   -0.0000   -0.0000    0.0010   -0.0000    0.0000   -0.0000   -0.0011
      135 TA     4f3+       0.0000    0.0030   -0.0000    0.0000   -0.0114   -0.0000   -0.0000    0.0083   -0.0000    0.0000
      136 TA     5f3+      -0.0000   -0.0024    0.0000   -0.0000    0.0058    0.0000   -0.0000   -0.0038    0.0000   -0.0000
      137 TA     6f3+       0.0000    0.0020   -0.0000    0.0000   -0.0030   -0.0000    0.0000    0.0019    0.0000    0.0000
      138 TA     7f3+      -0.0000   -0.0019    0.0000   -0.0000    0.0013    0.0000   -0.0000   -0.0009   -0.0000   -0.0000
      139 TA     8f3+       0.0000    0.0017   -0.0000    0.0000    0.0001   -0.0000    0.0000    0.0001    0.0000   -0.0000
      140 TA     9f3+      -0.0000   -0.0013    0.0000   -0.0000   -0.0010    0.0000   -0.0000    0.0004    0.0000    0.0000
      141 TA    10f3+       0.0000    0.0010   -0.0000    0.0000    0.0011   -0.0000    0.0000   -0.0005   -0.0000   -0.0000
      142 TA    11f3+      -0.0000   -0.0005    0.0000   -0.0000   -0.0018    0.0000    0.0000    0.0010    0.0000    0.0000
      143 TA     5g4-       0.0000   -0.0000   -0.0000   -0.0005   -0.0000   -0.0000   -0.0022    0.0000    0.0003   -0.0000
      144 TA     6g4-      -0.0000    0.0000    0.0000    0.0004    0.0000    0.0000    0.0018   -0.0000    0.0001   -0.0000
      145 TA     7g4-       0.0000   -0.0000   -0.0000   -0.0003    0.0000   -0.0000   -0.0012    0.0000   -0.0001    0.0000
      146 TA     8g4-      -0.0000    0.0000    0.0000    0.0002   -0.0000    0.0000    0.0007   -0.0000    0.0001   -0.0000
      147 TA     5g3-       0.0000   -0.0000   -0.0000   -0.0000   -0.0000    0.0000   -0.0000    0.0000   -0.0000    0.0000
      148 TA     6g3-      -0.0000    0.0000    0.0000    0.0000    0.0000   -0.0000    0.0000   -0.0000    0.0000   -0.0000
      149 TA     7g3-       0.0000   -0.0000   -0.0000   -0.0000    0.0000    0.0000   -0.0000    0.0000   -0.0000    0.0000
      150 TA     8g3-      -0.0000    0.0000    0.0000    0.0000   -0.0000   -0.0000    0.0000   -0.0000    0.0000   -0.0000
      151 TA     5g2-       0.0000    0.0000    0.0000    0.0003    0.0000    0.0000    0.0000   -0.0000   -0.0008    0.0000
      152 TA     6g2-      -0.0000   -0.0000   -0.0000   -0.0003   -0.0000   -0.0000   -0.0003    0.0000    0.0004   -0.0000
      153 TA     7g2-       0.0000    0.0000    0.0000    0.0003   -0.0000    0.0000    0.0002   -0.0000   -0.0002    0.0000
      154 TA     8g2-      -0.0000   -0.0000   -0.0000   -0.0002    0.0000   -0.0000   -0.0001    0.0000    0.0001   -0.0000
      155 TA     5g1-      -0.0000   -0.0000   -0.0000   -0.0004   -0.0000   -0.0000   -0.0026    0.0000    0.0004   -0.0000
      156 TA     6g1-       0.0000    0.0000    0.0000    0.0003    0.0000    0.0000    0.0022   -0.0000   -0.0007    0.0000
      157 TA     7g1-      -0.0000   -0.0000   -0.0000   -0.0002   -0.0000   -0.0000   -0.0015    0.0000    0.0006   -0.0000
      158 TA     8g1-       0.0000    0.0000    0.0000    0.0001    0.0000    0.0000    0.0009    0.0000   -0.0005    0.0000
      159 TA     5g0       -0.0000   -0.0010    0.0000   -0.0000   -0.0002   -0.0000    0.0000   -0.0041   -0.0000   -0.0000
      160 TA     6g0        0.0000    0.0008   -0.0000    0.0000    0.0001    0.0000   -0.0000    0.0035    0.0000    0.0000
      161 TA     7g0       -0.0000   -0.0006    0.0000   -0.0000   -0.0001   -0.0000    0.0000   -0.0024   -0.0000   -0.0000
      162 TA     8g0        0.0000    0.0004   -0.0000    0.0000    0.0001    0.0000   -0.0000    0.0015    0.0000    0.0000
      163 TA     5g1+       0.0002    0.0000    0.0004   -0.0000   -0.0000   -0.0026    0.0000    0.0000    0.0000    0.0004
      164 TA     6g1+      -0.0002   -0.0000   -0.0003    0.0000    0.0000    0.0022   -0.0000   -0.0000   -0.0000   -0.0007
      165 TA     7g1+       0.0002    0.0000    0.0002   -0.0000   -0.0000   -0.0015    0.0000    0.0000    0.0000    0.0006
      166 TA     8g1+      -0.0001   -0.0000   -0.0001    0.0000    0.0000    0.0009   -0.0000   -0.0000   -0.0000   -0.0005
      167 TA     5g2+       0.0001    0.0000    0.0003   -0.0000    0.0000   -0.0000    0.0000   -0.0000    0.0000    0.0008
      168 TA     6g2+      -0.0001   -0.0000   -0.0003    0.0000   -0.0000    0.0003   -0.0000    0.0000   -0.0000   -0.0004
      169 TA     7g2+       0.0001    0.0000    0.0003   -0.0000    0.0000   -0.0002    0.0000   -0.0000    0.0000    0.0002
      170 TA     8g2+      -0.0000   -0.0000   -0.0002    0.0000   -0.0000    0.0001   -0.0000    0.0000   -0.0000   -0.0001
      171 TA     5g3+      -0.0000   -0.0003   -0.0000    0.0000    0.0016    0.0000    0.0000   -0.0024    0.0000   -0.0000
      172 TA     6g3+       0.0000    0.0002    0.0000   -0.0000   -0.0014   -0.0000   -0.0000    0.0023   -0.0000    0.0000
      173 TA     7g3+      -0.0000   -0.0002    0.0000    0.0000    0.0011    0.0000    0.0000   -0.0015   -0.0000   -0.0000
      174 TA     8g3+       0.0000    0.0001   -0.0000   -0.0000   -0.0007   -0.0000   -0.0000    0.0009    0.0000    0.0000
      175 TA     5g4+      -0.0000    0.0000    0.0005   -0.0000   -0.0000   -0.0022    0.0000    0.0000    0.0000    0.0003
      176 TA     6g4+       0.0000   -0.0000   -0.0004    0.0000    0.0000    0.0018   -0.0000   -0.0000    0.0000    0.0001
      177 TA     7g4+      -0.0000    0.0000    0.0003   -0.0000   -0.0000   -0.0012    0.0000    0.0000   -0.0000   -0.0001
      178 TA     8g4+       0.0000   -0.0000   -0.0002    0.0000    0.0000    0.0007   -0.0000   -0.0000    0.0000    0.0001
      179 TA     6h5-       0.0000    0.0000    0.0000    0.0000    0.0000    0.0000    0.0002    0.0000   -0.0007    0.0000
      180 TA     7h5-      -0.0000   -0.0000   -0.0000   -0.0000    0.0000   -0.0000   -0.0001   -0.0000    0.0006   -0.0000
      181 TA     6h4-      -0.0000   -0.0000    0.0000    0.0000   -0.0000    0.0000    0.0002   -0.0000    0.0003   -0.0000
      182 TA     7h4-       0.0000    0.0000   -0.0000   -0.0001   -0.0000   -0.0000   -0.0002    0.0000   -0.0003    0.0000
      183 TA     6h3-      -0.0000   -0.0000    0.0000    0.0000   -0.0000   -0.0000    0.0000   -0.0000   -0.0000    0.0000
      184 TA     7h3-       0.0000   -0.0000   -0.0000   -0.0000   -0.0000    0.0000   -0.0000    0.0000   -0.0000    0.0000
      185 TA     6h2-       0.0000   -0.0000    0.0000    0.0000    0.0000    0.0000    0.0002    0.0000   -0.0004    0.0000
      186 TA     7h2-      -0.0000    0.0000   -0.0000   -0.0000    0.0000   -0.0000   -0.0001   -0.0000    0.0005   -0.0000
      187 TA     6h1-      -0.0000    0.0000    0.0000    0.0001    0.0000    0.0000    0.0005   -0.0000    0.0006   -0.0000
      188 TA     7h1-       0.0000   -0.0000   -0.0000   -0.0001   -0.0000   -0.0000   -0.0003    0.0000   -0.0005    0.0000
      189 TA     6h0       -0.0000   -0.0001    0.0000   -0.0000   -0.0001    0.0000   -0.0000   -0.0008   -0.0000   -0.0000
      190 TA     7h0        0.0000    0.0001   -0.0000    0.0000    0.0001   -0.0000    0.0000    0.0005    0.0000    0.0000
      191 TA     6h1+       0.0000   -0.0000   -0.0001    0.0000    0.0000    0.0005   -0.0000    0.0000    0.0000    0.0006
      192 TA     7h1+      -0.0000    0.0000    0.0001   -0.0000   -0.0000   -0.0003    0.0000   -0.0000   -0.0000   -0.0005
      193 TA     6h2+       0.0000   -0.0000    0.0000   -0.0000    0.0000   -0.0002    0.0000    0.0000    0.0000    0.0004
      194 TA     7h2+      -0.0000    0.0000   -0.0000    0.0000    0.0000    0.0001   -0.0000   -0.0000   -0.0000   -0.0005
      195 TA     6h3+      -0.0000   -0.0000    0.0000   -0.0000   -0.0001   -0.0000   -0.0000   -0.0001    0.0000    0.0000
      196 TA     7h3+       0.0000    0.0000   -0.0000    0.0000    0.0002    0.0000    0.0000   -0.0001    0.0000    0.0000
      197 TA     6h4+       0.0000   -0.0000   -0.0000    0.0000    0.0000    0.0002   -0.0000   -0.0000    0.0000    0.0003
      198 TA     7h4+      -0.0000    0.0000    0.0001   -0.0000   -0.0000   -0.0002    0.0000    0.0000   -0.0000   -0.0003
      199 TA     6h5+       0.0000    0.0000    0.0000   -0.0000   -0.0000   -0.0002    0.0000    0.0000    0.0000    0.0007
      200 TA     7h5+      -0.0000   -0.0000   -0.0000    0.0000   -0.0000    0.0001   -0.0000   -0.0000   -0.0000   -0.0006

          Orbital           21        22        23        24        25        26        27        28        29        30    
          Energy           -8.5472   -8.5398   -8.5398   -3.3095   -1.9295   -1.9295   -1.9108   -1.0536   -1.0030   -0.9580
          Occ. No.          2.0000    2.0000    2.0000    2.0000    2.0000    2.0000    2.0000    2.0000    2.0000    2.0000

        1 TA     1s        -0.0000    0.0000   -0.0000   -0.0000   -0.0000    0.0000    0.0000   -0.0000   -0.0000   -0.0000
        2 TA     2s        -0.0001    0.0000   -0.0000    0.0001    0.0000   -0.0000   -0.0000   -0.0000    0.0000    0.0000
        3 TA     3s         0.0005   -0.0000    0.0000    0.0011   -0.0000    0.0000   -0.0000   -0.0000    0.0008    0.0000
        4 TA     4s         0.0096   -0.0000    0.0000   -0.0199   -0.0000   -0.0000    0.0041   -0.0000    0.0026    0.0000
        5 TA     5s         0.0109   -0.0000    0.0000    0.9961    0.0000    0.0000   -0.0586    0.0000   -0.0078   -0.0000
        6 TA     6s        -0.0020    0.0000   -0.0000    0.0214    0.0000   -0.0000   -0.0095    0.0000   -0.0107   -0.0000
        7 TA     7s         0.0029   -0.0000    0.0000   -0.0205   -0.0000    0.0000    0.0087   -0.0000    0.0075    0.0000
        8 TA     8s        -0.0044    0.0000   -0.0000    0.0261    0.0000   -0.0000   -0.0065    0.0000   -0.0047   -0.0000
        9 TA     9s         0.0028   -0.0000    0.0000   -0.0106   -0.0000   -0.0000    0.0006   -0.0000    0.0008    0.0000
       10 TA    10s        -0.0010    0.0000   -0.0000    0.0028    0.0000   -0.0000   -0.0007    0.0000   -0.0004   -0.0000
       11 TA    11s         0.0010   -0.0000    0.0000   -0.0053   -0.0000   -0.0000    0.0009   -0.0000    0.0008    0.0000
       12 TA     2px       -0.0000    0.0000    0.0002   -0.0000    0.0000    0.0000    0.0000   -0.0000   -0.0000    0.0000
       13 TA     3px        0.0000   -0.0000   -0.0020   -0.0000    0.0012    0.0000    0.0000   -0.0000   -0.0000    0.0006
       14 TA     4px        0.0000   -0.0000   -0.0563   -0.0000   -0.0214   -0.0000   -0.0000   -0.0000   -0.0000    0.0017
       15 TA     5px        0.0000   -0.0000   -0.0222   -0.0000    0.9963    0.0005    0.0000    0.0000    0.0000   -0.0187
       16 TA     6px       -0.0000    0.0000    0.0061    0.0000    0.0254    0.0000    0.0000    0.0000    0.0000   -0.0106
       17 TA     7px        0.0000   -0.0000   -0.0131   -0.0000   -0.0342   -0.0000   -0.0000   -0.0000   -0.0000    0.0071
       18 TA     8px       -0.0000    0.0000    0.0072    0.0000    0.0081    0.0000    0.0000    0.0000   -0.0000    0.0006
       19 TA     9px        0.0000   -0.0000   -0.0042   -0.0000   -0.0022   -0.0000   -0.0000    0.0000   -0.0000    0.0001
       20 TA    10px       -0.0000    0.0000    0.0027   -0.0000    0.0030    0.0000    0.0000    0.0000    0.0000   -0.0005
       21 TA    11px        0.0000   -0.0000   -0.0011    0.0000   -0.0018   -0.0000   -0.0000   -0.0000   -0.0000    0.0000
       22 TA     2py        0.0000    0.0002   -0.0000    0.0000    0.0000   -0.0000    0.0000   -0.0000    0.0000    0.0000
       23 TA     3py       -0.0000   -0.0020    0.0000    0.0000    0.0000   -0.0012    0.0000   -0.0000   -0.0000    0.0000
       24 TA     4py       -0.0000   -0.0563    0.0000   -0.0000   -0.0000    0.0214   -0.0000   -0.0000    0.0000    0.0000
       25 TA     5py       -0.0000   -0.0222    0.0000    0.0000    0.0005   -0.9963    0.0000    0.0000    0.0000   -0.0000
       26 TA     6py        0.0000    0.0061   -0.0000   -0.0000    0.0000   -0.0254    0.0000    0.0000    0.0000   -0.0000
       27 TA     7py       -0.0000   -0.0131    0.0000    0.0000   -0.0000    0.0342   -0.0000   -0.0000   -0.0000    0.0000
       28 TA     8py        0.0000    0.0072   -0.0000    0.0000    0.0000   -0.0081    0.0000    0.0000   -0.0000    0.0000
       29 TA     9py       -0.0000   -0.0042    0.0000   -0.0000   -0.0000    0.0022   -0.0000   -0.0000   -0.0000    0.0000
       30 TA    10py        0.0000    0.0027   -0.0000    0.0000    0.0000   -0.0030    0.0000    0.0000    0.0000   -0.0000
       31 TA    11py       -0.0000   -0.0011    0.0000   -0.0000   -0.0000    0.0018   -0.0000   -0.0000    0.0000    0.0000
       32 TA     2pz        0.0000   -0.0000    0.0000   -0.0000   -0.0000    0.0000    0.0001    0.0000   -0.0000   -0.0000
       33 TA     3pz        0.0017   -0.0000    0.0000    0.0002   -0.0000    0.0000    0.0010    0.0000   -0.0031   -0.0000
       34 TA     4pz        0.0198   -0.0000    0.0000    0.0025    0.0000   -0.0000   -0.0259    0.0000   -0.0092   -0.0000
       35 TA     5pz        0.0122   -0.0000    0.0000    0.0601   -0.0000    0.0000    0.9943   -0.0000    0.0608    0.0000
       36 TA     6pz       -0.0040    0.0000   -0.0000   -0.0071   -0.0000    0.0000    0.0313    0.0000    0.0339    0.0000
       37 TA     7pz        0.0082   -0.0000    0.0000    0.0079    0.0000   -0.0000   -0.0413    0.0000   -0.0247   -0.0000
       38 TA     8pz       -0.0043    0.0000   -0.0000   -0.0002   -0.0000    0.0000    0.0099   -0.0000    0.0000   -0.0000
       39 TA     9pz        0.0024   -0.0000    0.0000   -0.0005    0.0000   -0.0000   -0.0030    0.0000   -0.0014   -0.0000
       40 TA    10pz       -0.0015    0.0000   -0.0000   -0.0003   -0.0000    0.0000    0.0038   -0.0000    0.0022    0.0000
       41 TA    11pz        0.0007   -0.0000    0.0000    0.0001    0.0000   -0.0000   -0.0020    0.0000   -0.0013   -0.0000
       42 TA     3d2-      -0.0000   -0.0014    0.0000    0.0000    0.0000   -0.0001    0.0000   -0.0000   -0.0000    0.0000
       43 TA     4d2-       0.0000    0.5184   -0.0002    0.0000    0.0000   -0.0087    0.0000    0.0000    0.0000    0.0000
       44 TA     5d2-       0.0000    0.0147   -0.0000    0.0000    0.0000   -0.0111    0.0000    0.0000   -0.0000    0.0000
       45 TA     6d2-      -0.0000   -0.0186    0.0000   -0.0000   -0.0000    0.0086   -0.0000   -0.0000    0.0000   -0.0000
       46 TA     7d2-       0.0000    0.0163   -0.0000    0.0000    0.0000   -0.0038    0.0000   -0.0000   -0.0000    0.0000
       47 TA     8d2-      -0.0000   -0.0137    0.0000    0.0000   -0.0000    0.0016   -0.0000    0.0000    0.0000   -0.0000
       48 TA     9d2-       0.0000    0.0075   -0.0000    0.0000    0.0000   -0.0009    0.0000    0.0000   -0.0000    0.0000
       49 TA    10d2-      -0.0000   -0.0057    0.0000   -0.0000   -0.0000    0.0007   -0.0000    0.0000    0.0000   -0.0000
       50 TA    11d2-       0.0000    0.0016   -0.0000   -0.0000   -0.0000    0.0001   -0.0000   -0.0000   -0.0000    0.0000
       51 TA     3d1-      -0.0000   -0.0026    0.0000    0.0000    0.0000   -0.0002    0.0000    0.0000   -0.0000   -0.0000
       52 TA     4d1-       0.0000    0.8489   -0.0003    0.0000    0.0000   -0.0133    0.0000    0.0000   -0.0000   -0.0000
       53 TA     5d1-       0.0000    0.0244   -0.0000    0.0000    0.0000   -0.0350    0.0000    0.0000   -0.0000    0.0000
       54 TA     6d1-      -0.0000   -0.0308    0.0000   -0.0000   -0.0000    0.0241   -0.0000   -0.0000    0.0000   -0.0000
       55 TA     7d1-       0.0000    0.0269   -0.0000    0.0000    0.0000   -0.0079    0.0000   -0.0000    0.0000   -0.0000
       56 TA     8d1-      -0.0000   -0.0225    0.0000   -0.0000   -0.0000    0.0016    0.0000    0.0000   -0.0000    0.0000
       57 TA     9d1-       0.0000    0.0122   -0.0000   -0.0000    0.0000   -0.0013    0.0000    0.0000   -0.0000    0.0000
       58 TA    10d1-      -0.0000   -0.0092    0.0000   -0.0000   -0.0000    0.0012   -0.0000   -0.0000   -0.0000    0.0000
       59 TA    11d1-       0.0000    0.0025   -0.0000    0.0000   -0.0000    0.0001   -0.0000    0.0000    0.0000   -0.0000
       60 TA     3d0       -0.0031    0.0000   -0.0000   -0.0002    0.0000   -0.0000   -0.0003    0.0000   -0.0037   -0.0000
       61 TA     4d0        0.9972   -0.0000    0.0000   -0.0110    0.0000   -0.0000   -0.0093    0.0000   -0.0158    0.0000
       62 TA     5d0        0.0277   -0.0000    0.0000   -0.0018    0.0000    0.0000    0.0076   -0.0000   -0.0999    0.0000
       63 TA     6d0       -0.0353    0.0000   -0.0000    0.0024   -0.0000   -0.0000   -0.0023    0.0000    0.0444   -0.0000
       64 TA     7d0        0.0311   -0.0000    0.0000   -0.0022    0.0000   -0.0000   -0.0022    0.0000   -0.0075    0.0000
       65 TA     8d0       -0.0262    0.0000   -0.0000    0.0022   -0.0000    0.0000    0.0030   -0.0000    0.0044    0.0000
       66 TA     9d0        0.0142   -0.0000    0.0000   -0.0012    0.0000   -0.0000   -0.0011    0.0000   -0.0037    0.0000
       67 TA    10d0       -0.0107    0.0000   -0.0000    0.0009   -0.0000    0.0000    0.0008   -0.0000    0.0024    0.0000
       68 TA    11d0        0.0030   -0.0000    0.0000   -0.0001    0.0000   -0.0000   -0.0000    0.0000   -0.0012   -0.0000
       69 TA     3d1+       0.0000   -0.0000   -0.0026    0.0000    0.0002    0.0000   -0.0000    0.0000    0.0000   -0.0005
       70 TA     4d1+      -0.0000    0.0003    0.8489    0.0000    0.0133    0.0000    0.0000    0.0000    0.0000   -0.0077
       71 TA     5d1+      -0.0000    0.0000    0.0244   -0.0000    0.0350    0.0000    0.0000   -0.0000   -0.0000    0.0324
       72 TA     6d1+       0.0000   -0.0000   -0.0308    0.0000   -0.0241   -0.0000   -0.0000    0.0000    0.0000   -0.0105
       73 TA     7d1+      -0.0000    0.0000    0.0269   -0.0000    0.0079    0.0000    0.0000    0.0000    0.0000   -0.0012
       74 TA     8d1+       0.0000   -0.0000   -0.0225    0.0000   -0.0016   -0.0000    0.0000   -0.0000   -0.0000    0.0010
       75 TA     9d1+      -0.0000    0.0000    0.0122    0.0000    0.0013    0.0000   -0.0000    0.0000    0.0000    0.0000
       76 TA    10d1+       0.0000   -0.0000   -0.0092   -0.0000   -0.0012   -0.0000   -0.0000   -0.0000   -0.0000    0.0002
       77 TA    11d1+      -0.0000    0.0000    0.0025    0.0000   -0.0001   -0.0000   -0.0000    0.0000    0.0000   -0.0000
       78 TA     3d2+      -0.0000    0.0000    0.0014   -0.0000   -0.0001   -0.0000    0.0000   -0.0000   -0.0000   -0.0019
       79 TA     4d2+       0.0000   -0.0002   -0.5184    0.0000   -0.0087   -0.0000   -0.0000   -0.0000   -0.0000   -0.0116
       80 TA     5d2+       0.0000   -0.0000   -0.0147    0.0000   -0.0111   -0.0000   -0.0000    0.0000   -0.0000   -0.0312
       81 TA     6d2+      -0.0000    0.0000    0.0186   -0.0000    0.0086    0.0000    0.0000   -0.0000    0.0000    0.0153
       82 TA     7d2+       0.0000   -0.0000   -0.0163    0.0000   -0.0038   -0.0000   -0.0000   -0.0000    0.0000   -0.0040
       83 TA     8d2+      -0.0000    0.0000    0.0137   -0.0000    0.0016    0.0000    0.0000    0.0000    0.0000    0.0025
       84 TA     9d2+       0.0000   -0.0000   -0.0075    0.0000   -0.0009   -0.0000   -0.0000   -0.0000   -0.0000   -0.0016
       85 TA    10d2+      -0.0000    0.0000    0.0057   -0.0000    0.0007    0.0000    0.0000    0.0000    0.0000    0.0010
       86 TA    11d2+       0.0000   -0.0000   -0.0016   -0.0000    0.0001    0.0000    0.0000   -0.0000   -0.0000   -0.0004
[...]
         4   12       1.33554322E-02  9.31370151E-03  4.99994243E+05  2.17070205E-12  4.99994252E+05
         4   14       7.13747758E-03  2.30273665E+05  1.36108698E-02  2.05739694E+05  4.36013373E+05
         4   16       3.76904729E-03  1.36081076E-02  2.30253278E+05  1.83336100E-04  2.30253292E+05
         4   18       1.01282076E-05  9.21582565E-05  4.94627385E+03  3.40651841E-11  4.94627395E+03
         5    7       7.27446650E-03  1.57451465E-03  1.14026576E+05  4.70169876E-13  1.14026578E+05
         5    9       7.27513833E-03  1.14041223E+05  1.57473889E-03  3.51954186E-06  1.14041224E+05
         5   11       2.23123172E-02  1.28360770E-06  5.13828759E-14  5.22600809E+05  5.22600809E+05
         5   13       2.22720213E-03  1.08208090E-03  9.51703871E+04  4.58769160E-12  9.51703882E+04
         5   15       2.22696954E-03  9.51654814E+04  1.08205800E-03  3.86584950E-05  9.51654826E+04
         5   17       6.58892605E-03  9.36461918E-05  1.14855877E-11  2.85612407E+06  2.85612407E+06
         6    8       7.27446650E-03  1.57451465E-03  1.14026576E+05  4.70169876E-13  1.14026578E+05
         6   10       7.27513833E-03  1.14041223E+05  1.57473889E-03  3.51954186E-06  1.14041224E+05
         6   12       2.23123172E-02  1.28360770E-06  5.13828759E-14  5.22600809E+05  5.22600809E+05
         6   14       2.22720213E-03  1.08208090E-03  9.51703871E+04  4.58769160E-12  9.51703882E+04
         6   16       2.22696954E-03  9.51654814E+04  1.08205800E-03  3.86584950E-05  9.51654826E+04
         6   18       6.58892605E-03  9.36461918E-05  1.14855877E-11  2.85612407E+06  2.85612407E+06
         7   11       1.00949473E-03  1.08066061E-05  7.82608131E+02  1.92148253E-15  7.82608141E+02
         7   13       1.79170283E-03  5.40294791E+03  2.71470485E-04  6.50240411E+03  1.19053523E+04
         7   15       8.13361169E-04  2.71524597E-04  5.40527667E+03  7.69538360E-07  5.40527695E+03
         7   17       1.08514163E-01  4.25981447E-01  3.08493717E+07  1.05542203E-09  3.08493722E+07
         8   12       1.00949473E-03  1.08066061E-05  7.82608131E+02  1.92148253E-15  7.82608141E+02
         8   14       1.79170283E-03  5.40294791E+03  2.71470485E-04  6.50240411E+03  1.19053523E+04
         8   16       8.13361169E-04  2.71524597E-04  5.40527667E+03  7.69538360E-07  5.40527695E+03
         8   18       1.08514163E-01  4.25981447E-01  3.08493717E+07  1.05542203E-09  3.08493722E+07
         9   11       1.00938821E-03  7.82398566E+02  1.08038221E-05  1.18109716E-08  7.82398577E+02
         9   13       8.13344176E-04  2.71466185E-04  5.40413932E+03  7.69289224E-07  5.40413959E+03
         9   15       1.79247757E-03  5.40567146E+03  2.71602594E-04  6.50576566E+03  1.19114374E+04
         9   17       1.08520225E-01  3.08508336E+07  4.25998994E-01  7.41660631E-03  3.08508340E+07
        10   12       1.00938821E-03  7.82398566E+02  1.08038221E-05  1.18109716E-08  7.82398577E+02
        10   14       8.13344176E-04  2.71466185E-04  5.40413932E+03  7.69289224E-07  5.40413959E+03
        10   16       1.79247757E-03  5.40567146E+03  2.71602594E-04  6.50576566E+03  1.19114374E+04
        10   18       1.08520225E-01  3.08508336E+07  4.25998994E-01  7.41660631E-03  3.08508340E+07
        11   13       2.83530119E-03  9.28665016E-05  8.16755942E+03  8.02353836E-15  8.16755951E+03
        11   15       2.83580293E-03  8.17066883E+03  9.29040541E-05  3.43052004E-09  8.17066892E+03
        11   17       1.58737618E-01  2.95765425E-03  2.04277249E-10  4.05372680E+07  4.05372680E+07
        12   14       2.83530119E-03  9.28665016E-05  8.16755942E+03  8.02353836E-15  8.16755951E+03
        12   16       2.83580293E-03  8.17066883E+03  9.29040541E-05  3.43052004E-09  8.17066892E+03
        12   18       1.58737618E-01  2.95765425E-03  2.04277249E-10  4.05372680E+07  4.05372680E+07
        13   17       5.68795420E-02  1.31938706E-01  1.16038779E+07  8.59606673E-12  1.16038780E+07
        14   18       5.68795420E-02  1.31938706E-01  1.16038779E+07  8.59606673E-12  1.16038780E+07
        15   17       5.68732670E-02  1.16023169E+07  1.31919592E-01  1.00592547E-04  1.16023170E+07
        16   18       5.68732670E-02  1.16023169E+07  1.31919592E-01  1.00592547E-04  1.16023170E+07
     -----------------------------------------------------------------------------------------------
--

++ Velocity transition strengths (SO states):
   ------------------------------------------
    for osc. strength at least    1.0000000000000001E-005

      From   To        Osc. strength     Einstein coefficients Ax, Ay, Az (sec-1)    Total A (sec-1)
     -----------------------------------------------------------------------------------------------
         1    5       2.04209112E-05  3.34066020E+01  6.22162133E-07  4.17909185E-07  3.34066031E+01
         1    7       1.71624864E-02  3.03799859E-02  4.70914316E+05  1.70306835E-04  4.70914347E+05
         1    9       3.44048025E-02  4.70947342E+05  3.03811436E-02  4.73097484E+05  9.44044856E+05
         1   11       2.43957396E-02  9.13330123E+05  1.70132692E-02  7.26358242E-05  9.13330140E+05
         1   13       6.36991108E-03  2.29981196E-02  3.89129359E+05  3.89441078E-04  3.89129382E+05
         1   15       1.35213947E-02  3.89071286E+05  2.29967055E-02  4.36969218E+05  8.26040528E+05
         2    6       2.04209112E-05  3.34066020E+01  6.22162133E-07  4.17909185E-07  3.34066031E+01
         2    8       1.71624864E-02  3.03799859E-02  4.70914316E+05  1.70306835E-04  4.70914347E+05
         2   10       3.44048025E-02  4.70947342E+05  3.03811436E-02  4.73097484E+05  9.44044856E+05
         2   12       2.43957396E-02  9.13330123E+05  1.70132692E-02  7.26358242E-05  9.13330140E+05
         2   14       6.36991108E-03  2.29981196E-02  3.89129359E+05  3.89441078E-04  3.89129382E+05
         2   16       1.35213947E-02  3.89071286E+05  2.29967055E-02  4.36969218E+05  8.26040528E+05
         3    5       2.04129121E-05  6.21931249E-07  3.33915940E+01  1.45944658E-13  3.33915946E+01
         3    7       3.44026594E-02  4.70899924E+05  3.03783058E-02  4.73047076E+05  9.43947030E+05
         3    9       1.71626349E-02  3.03803716E-02  4.70924614E+05  1.70325043E-04  4.70924644E+05
         3   11       2.43965348E-02  1.70135540E-02  9.13348902E+05  1.22853149E-11  9.13348919E+05
         3   13       1.35233984E-02  3.89118278E+05  2.29996888E-02  4.37000307E+05  8.26118609E+05
         3   15       6.36895856E-03  2.29952403E-02  3.89084714E+05  3.89402217E-04  3.89084737E+05
         4    6       2.04129121E-05  6.21931249E-07  3.33915940E+01  1.45944658E-13  3.33915946E+01
         4    8       3.44026594E-02  4.70899924E+05  3.03783058E-02  4.73047076E+05  9.43947030E+05
         4   10       1.71626349E-02  3.03803716E-02  4.70924614E+05  1.70325043E-04  4.70924644E+05
         4   12       2.43965348E-02  1.70135540E-02  9.13348902E+05  1.22853149E-11  9.13348919E+05
         4   14       1.35233984E-02  3.89118278E+05  2.29996888E-02  4.37000307E+05  8.26118609E+05
         4   16       6.36895856E-03  2.29952403E-02  3.89084714E+05  3.89402217E-04  3.89084737E+05
         5    7       1.19967273E-02  2.59662413E-03  1.88048223E+05  5.16056111E-12  1.88048225E+05
         5    9       1.19979663E-02  1.88074432E+05  2.59703339E-03  3.43798623E-05  1.88074435E+05
         5   11       6.01328912E-02  7.97391415E-06  2.68124465E-13  1.40844210E+06  1.40844210E+06
         5   13       4.64239425E-03  2.25551752E-03  1.98374449E+05  1.47584148E-11  1.98374451E+05
         5   15       4.64196521E-03  1.98366606E+05  2.25547576E-03  1.17691620E-04  1.98366608E+05
         5   17       8.82832086E-03  1.50539321E-04  1.76911205E-11  3.82685541E+06  3.82685541E+06
         6    8       1.19967273E-02  2.59662413E-03  1.88048223E+05  5.16056111E-12  1.88048225E+05
         6   10       1.19979663E-02  1.88074432E+05  2.59703339E-03  3.43798623E-05  1.88074435E+05
         6   12       6.01328912E-02  7.97391415E-06  2.68124465E-13  1.40844210E+06  1.40844210E+06
         6   14       4.64239425E-03  2.25551752E-03  1.98374449E+05  1.47584148E-11  1.98374451E+05
         6   16       4.64196521E-03  1.98366606E+05  2.25547576E-03  1.17691620E-04  1.98366608E+05
         6   18       8.82832086E-03  1.50539321E-04  1.76911205E-11  3.82685541E+06  3.82685541E+06
         7   11       1.26520181E-02  1.35442268E-04  9.80847783E+03  1.02808217E-13  9.80847797E+03
         7   13       5.30417237E-03  1.78179261E+04  8.95182451E-04  1.74269022E+04  3.52448292E+04
         7   15       2.68087942E-03  8.95056157E-04  1.78161264E+04  2.06355183E-06  1.78161273E+04
         7   17       1.90074391E-01  7.46155489E-01  5.40362268E+07  1.77828646E-09  5.40362275E+07
         8   12       1.26520181E-02  1.35442268E-04  9.80847783E+03  1.02808217E-13  9.80847797E+03
         8   14       5.30417237E-03  1.78179261E+04  8.95182451E-04  1.74269022E+04  3.52448292E+04
         8   16       2.68087942E-03  8.95056157E-04  1.78161264E+04  2.06355183E-06  1.78161273E+04
         8   18       1.90074391E-01  7.46155489E-01  5.40362268E+07  1.77828646E-09  5.40362275E+07
         9   11       1.26513533E-02  9.80637082E+03  1.35408159E-04  9.95993699E-07  9.80637096E+03
         9   13       2.68130089E-03  8.95055844E-04  1.78155501E+04  2.06087521E-06  1.78155510E+04
         9   15       5.30248102E-03  1.78137629E+04  8.94922107E-04  1.74225992E+04  3.52363630E+04
         9   17       1.90085472E-01  5.40389190E+07  7.46188399E-01  1.23874166E-02  5.40389198E+07
        10   12       1.26513533E-02  9.80637082E+03  1.35408159E-04  9.95993699E-07  9.80637096E+03
        10   14       2.68130089E-03  8.95055844E-04  1.78155501E+04  2.06087521E-06  1.78155510E+04
        10   16       5.30248102E-03  1.78137629E+04  8.94922107E-04  1.74225992E+04  3.52363630E+04
        10   18       1.90085472E-01  5.40389190E+07  7.46188399E-01  1.23874166E-02  5.40389198E+07
        11   13       3.72535895E-04  1.22035274E-05  1.07315570E+03  2.84989719E-13  1.07315572E+03
        11   15       3.72395623E-04  1.07297015E+03  1.21978467E-05  1.81801671E-06  1.07297016E+03
        11   17       2.86305584E-01  5.75278487E-03  3.90416842E-10  7.31149093E+07  7.31149093E+07
        12   14       3.72535895E-04  1.22035274E-05  1.07315570E+03  2.84989719E-13  1.07315572E+03
        12   16       3.72395623E-04  1.07297015E+03  1.21978467E-05  1.81801671E-06  1.07297016E+03
        12   18       2.86305584E-01  5.75278487E-03  3.90416842E-10  7.31149093E+07  7.31149093E+07
        13   17       1.07668203E-01  2.49749767E-01  2.19652441E+07  1.82229134E-11  2.19652443E+07
        14   18       1.07668203E-01  2.49749767E-01  2.19652441E+07  1.82229134E-11  2.19652443E+07
        15   17       1.07657074E-01  2.19624421E+07  2.49715008E-01  2.15726173E-04  2.19624424E+07
        16   18       1.07657074E-01  2.19624421E+07  2.49715008E-01  2.15726173E-04  2.19624424E+07
     -----------------------------------------------------------------------------------------------
--

++ Length and velocity gauge comparison (SO states):

 --------------------------------------------------
 A comparison between the dipole oscillator strengths in 
 length and velocity gauge will be performed

 All dipole oscillator differences above the tolerance of   0.10000000000000001       will be printed 

 Due to basis set deficiency these oscillator may be problematic 

 The tolerance is defined as ABS(1-O_l/O_v) 
 O_l : dipole oscillator strength in length gauge
 O_p : dipole oscillator strength in velocity gauge
 --------------------------------------------------

  Problematic transitions have been found

      From   To       Difference (%) Osc. st. (len.) Osc. st. (vel.)
     ---------------------------------------------------------------
         1    5           721.019866  1.67659738E-04  2.04209112E-05
         1    7            44.644860  9.50031834E-03  1.71624864E-02
         1    9            42.080809  1.99269833E-02  3.44048025E-02
         1   11            45.256775  1.33550147E-02  2.43957396E-02
         1   13            40.821437  3.76962186E-03  6.36991108E-03
         1   15            47.221893  7.13633616E-03  1.35213947E-02
         1   17      ---------------  1.01277982E-05 below threshold
         2    6           721.019866  1.67659738E-04  2.04209112E-05
         2    8            44.644860  9.50031834E-03  1.71624864E-02
         2   10            42.080809  1.99269833E-02  3.44048025E-02
         2   12            45.256775  1.33550147E-02  2.43957396E-02
         2   14            40.821437  3.76962186E-03  6.36991108E-03
         2   16            47.221893  7.13633616E-03  1.35213947E-02
         2   18      ---------------  1.01277982E-05 below threshold
         3    5           721.298628  1.67650967E-04  2.04129121E-05
         3    7            42.080865  1.99257227E-02  3.44026594E-02
         3    9            44.644960  9.50038345E-03  1.71626349E-02
         3   11            45.256848  1.33554322E-02  2.43965348E-02
         3   13            47.221273  7.13747758E-03  1.35233984E-02
         3   15            40.821608  3.76904729E-03  6.36895856E-03
         3   17      ---------------  1.01282076E-05 below threshold
         4    6           721.298628  1.67650967E-04  2.04129121E-05
         4    8            42.080865  1.99257227E-02  3.44026594E-02
         4   10            44.644960  9.50038345E-03  1.71626349E-02
         4   12            45.256848  1.33554322E-02  2.43965348E-02
         4   14            47.221273  7.13747758E-03  1.35233984E-02
         4   16            40.821608  3.76904729E-03  6.36895856E-03
         4   18      ---------------  1.01282076E-05 below threshold
         5    7            39.362909  7.27446650E-03  1.19967273E-02
         5    9            39.363571  7.27513833E-03  1.19979663E-02
         5   11            62.894987  2.23123172E-02  6.01328912E-02
         5   13            52.024710  2.22720213E-03  4.64239425E-03
         5   15            52.025286  2.22696954E-03  4.64196521E-03
         5   17            25.366033  6.58892605E-03  8.82832086E-03
         6    8            39.362909  7.27446650E-03  1.19967273E-02
         6   10            39.363571  7.27513833E-03  1.19979663E-02
         6   12            62.894987  2.23123172E-02  6.01328912E-02
         6   14            52.024710  2.22720213E-03  4.64239425E-03
         6   16            52.025286  2.22696954E-03  4.64196521E-03
         6   18            25.366033  6.58892605E-03  8.82832086E-03
         7   11            92.021077  1.00949473E-03  1.26520181E-02
         7   13            66.220878  1.79170283E-03  5.30417237E-03
         7   15            69.660658  8.13361169E-04  2.68087942E-03
         7   17            42.909635  1.08514163E-01  1.90074391E-01
         8   12            92.021077  1.00949473E-03  1.26520181E-02
         8   14            66.220878  1.79170283E-03  5.30417237E-03
         8   16            69.660658  8.13361169E-04  2.68087942E-03
         8   18            42.909635  1.08514163E-01  1.90074391E-01
         9   11            92.021500  1.00938821E-03  1.26513533E-02
         9   13            69.666061  8.13344176E-04  2.68130089E-03
         9   15            66.195493  1.79247757E-03  5.30248102E-03
         9   17            42.909774  1.08520225E-01  1.90085472E-01
        10   12            92.021500  1.00938821E-03  1.26513533E-02
        10   14            69.666061  8.13344176E-04  2.68130089E-03
        10   16            66.195493  1.79247757E-03  5.30248102E-03
        10   18            42.909774  1.08520225E-01  1.90085472E-01
        11   13           661.081341  2.83530119E-03  3.72535895E-04
        11   15           661.502755  2.83580293E-03  3.72395623E-04
        11   17            44.556576  1.58737618E-01  2.86305584E-01
        12   14           661.081341  2.83530119E-03  3.72535895E-04
        12   16           661.502755  2.83580293E-03  3.72395623E-04
        12   18            44.556576  1.58737618E-01  2.86305584E-01
        13   17            47.171458  5.68795420E-02  1.07668203E-01
        14   18            47.171458  5.68795420E-02  1.07668203E-01
        15   17            47.171826  5.68732670E-02  1.07657074E-01
        16   18            47.171826  5.68732670E-02  1.07657074E-01
     ---------------------------------------------------------------

 Number of problematic transitions =                    66

--

 Electric-dipole - electric-octupole not included
++ I/O STATISTICS
 
  I. General I/O information
  - - - - - - - - - - - - - - - - - - - - - - - - - - - - - - - - - - - - - - - - - - -
  Unit  Name          Flsize      Write/Read            MBytes           Write/Read
                      (MBytes)       Calls              In/Out           Time, sec.
  - - - - - - - - - - - - - - - - - - - - - - - - - - - - - - - - - - - - - - - - - - -
   1  SCRATCH           0.00 .       9/      45 .      0.0/      0.0 .       0/       0
   2  ANNI              0.00 .       0/       0 .      0.0/      0.0 .       0/       0
   3  RUNFILE          15.28 .     322/   10733 .      2.3/     77.8 .       0/       0
   4  ONEINT            6.58 .       0/   28767 .      0.0/   3777.9 .       0/       0
   5  JOBIPH            7.71 .       0/      92 .      0.0/      0.9 .       0/       0
   6  ORDINT          771.03 .       1/    6169 .      0.0/   1542.0 .       0/       0
  - - - - - - - - - - - - - - - - - - - - - - - - - - - - - - - - - - - - - - - - - - -
   *  TOTAL           800.61 .     332/   45806 .      2.3/   5398.7 .       0/       0
  - - - - - - - - - - - - - - - - - - - - - - - - - - - - - - - - - - - - - - - - - - -
 
  II. I/O Access Patterns
  - - - - - - - - - - - - - - - - - - - -
  Unit  Name               % of random
                         Write/Read calls
  - - - - - - - - - - - - - - - - - - - -
   1  SCRATCH             88.9/ 100.0
   2  ANNI                 0.0/   0.0
   3  RUNFILE             28.6/  10.8
   4  ONEINT               0.0/  13.4
   5  JOBIPH               0.0/  76.1
   6  ORDINT             100.0/   0.0
  - - - - - - - - - - - - - - - - - - - -
--
--- Stop Module: rassi at Thu Jan  9 20:52:42 2025 /rc=_RC_ALL_IS_WELL_ ---
*** files: xmldump
    saved to directory /home4/s4752295/Internship/Initial_simulations/Point_charge_model/1_electron/active_space_9_non_rel/Ta/varying_bond_length
--- Module rassi spent 4 seconds ---

.##################.
.# Happy landing! #.
.##################.

    Timing: Wall=139.80 User=108.30 System=27.44

###############################################################################
Hbrk Cluster
Job 14549877 for user s4752295
Finished at: Thu Jan  9 20:52:43 CET 2025

Job details:
============

Job ID                         : 14549877
Name                           : Ta_no_c_light
User                           : s4752295
Partition                      : regularmedium
Nodes                          : node84
Number of Nodes                : 1
Cores                          : 1
Number of Tasks                : 1
State                          : COMPLETED  
Submit                         : 2025-01-09T20:50:16
Start                          : 2025-01-09T20:50:17
End                            : 2025-01-09T20:52:43
Reserved walltime              : 15:00:00
Used walltime                  : 00:02:26
Used CPU time                  : 00:02:17 (Efficiency: 93.72%)
% User (Computation)           : 79.71%
% System (I/O)                 : 20.29%
Total memory reserved          : 25000M
Maximum memory used            : 3.06G

Acknowledgements:
=================

Please see this page for information about acknowledging Hbrk in your publications:

https://wiki.hpc.rug.nl/habrok/introduction/scientific_output

################################################################################
