   This run of MOLCAS is using the pymolcas driver

                             OPE
                             OPE          NMOL  CASOP  ENMOLC A   SO
                 OPE        NMOLC        AS  OP EN  MO LC     AS  OP
                OPENM       OL CA        SO  PE NM  OL CA     SOP EN
                OP EN      MO   LC       AS  OP ENMOL  CASO   PENMOL
                OP  EN     MO   LC       AS  OP EN     MO     LC ASO
               OP   E  NMOL  C  AS       OP  EN MO     LC     AS  OP
               OP  E   NMO   LC AS        OPEN  MO     LCASOP EN   M
               O  PEN   MO  LCA  SO
            OPE   NMO   L   CAS    OP
        OPENMOL  CASOP     ENMOL   CASOPE
     OPENMOLCA   SOPENMOLCASOPEN   MOLCASOPE
    OPENMOLCAS   OP           EN   MOL    CAS
    OPENMOLCAS       OP  ENM        O     LCA
    OPENMOLCAS    OPEN  MOLCASO     P  E  NMO
    OPENMOLCAS     OP               E  N  MOL
    OPENMOLCA   SO           PENM   O  L  CAS    OPEN    MO    LCAS
    OPENMOLCA   SOP           ENM   O  L  CAS   OP  EN  MOLC  AS   O
    OPENMOLCA   SOPE           NM      O  LCA   S      OP  EN MO
    OPENMOLC                AS         O  PEN   M      OL  CA  SOPE
    OPENMO        LCASOPE  NMOL        C  ASO   P      ENMOLC     AS
    OPE     NMO      LCA  SO     P     E   NM   OL  CA SO  PE N   MO
          OPENMOLCA            SOPE   NMO        LCAS  O    P  ENMO
     OPENMOLCASOPENMOLCASOPENMOLCASOPENMOLCA
        OPENMOLCASOPENMOLCASOPENMOLCASOPE
            OPENMOLCASOPENMOLCASOPENM
               OPENMOLCASOPENMOLCA        version: o91e1abe7de707b ?
                   OPENMOLCASO
                       OPE                tag:

 OpenMolcas is free software; you can redistribute it and/or modify it
 under the terms of the GNU Lesser General Public License version 2.1.
 OpenMolcas is distributed in the hope that it will be useful, but it
 is provided "as is" and without any express or implied warranties.
 For more details see the full text of the license in the file
 LICENSE or in <http://www.gnu.org/licenses/>.

                 Copyright (C) The OpenMolcas Authors
           For the author list and the recommended citation,
                   consult the file CONTRIBUTORS.md

           *************************************************
           * pymolcas version py2.10                       *
           *   build 3068ae8b88c9345ec6cfef6fef7f1169      *
           *   (after the EMIL interpreter by V. Veryazov) *
           *************************************************

configuration info
------------------
Host name: login1 (Linux)
C Compiler ID: GNU
C flags: -std=gnu99
Fortran Compiler ID: GNU
Fortran flags: -fno-aggressive-loop-optimizations -cpp -fdefault-integer-8 -fmax-stack-var-size=1048576
Definitions: _MOLCAS_;_I8_;_LINUX_;_MKL_
Parallel: OFF (GA=OFF)


   ----------------------------------------------------------------------------------------------------------------------------------------------
  |
  |           Project: tantalum_so_cf
  |    Submitted from: /home4/s4752295/Internship/Initial_simulations/Point_charge_model/1_electron/active_space_9_non_rel/Ta/varying_bond_length
  |      Scratch area: /tmp/tantalum_so_cf
  |   Save outputs to: /home4/s4752295/Internship/Initial_simulations/Point_charge_model/1_electron/active_space_9_non_rel/Ta/varying_bond_length
  |            Molcas: /home4/s4752295/Internship/Molcas/recomp_try/OpenMolcas-master/build
  |
  | Scratch area is empty
  |
  |    MOLCAS_DRIVER = /home4/s4752295/Internship/Molcas/bin/pymolcas
  |    MOLCAS_NPROCS = 1
  |    MOLCAS_SOURCE = /home4/s4752295/Internship/Molcas/recomp_try/OpenMolcas-master
  | MOLCAS_STRUCTURE = 0
  |
   ----------------------------------------------------------------------------------------------------------------------------------------------

++ ---------   Input file   ---------

&SEWARD
AMFi

CLIG
$R

Basis Set
Ta.ANO-rcc.Roos.24s21p15d11f4g2h.11s10p9d8f4g2h.
Spherical d
Ta            0.0       0.0     0.0
End of Basis

Xfield
4
0.000000,  0.0000,  5.670       -1.0
4.910364,  0.0000, -2.835       -1.0
-2.455182,  4.2525, -2.835      -1.0
-2.455182, -4.2525, -2.835      -1.0

End of input

&SCF
Occupied
34
Iterations
   50  100
End of Input

&RASSCF
LumOrb
Symmetry
1
Spin
2
Nactel
1 0 0
CIRoot
9 9 1
inactive
34
ras2
9
Alter
4
1 35 40
1 36 41
1 37 42
1 38 43
End of Input

>>> COPY tantalum_so_cf.JobIph $SLURM_SUBMIT_DIR/tantalum_so_cf.doublet.JobIph

>>> COPY $SLURM_SUBMIT_DIR/tantalum_so_cf.doublet.JobIph ./JOB002

&RASSI
NROFJobIph
1 All
SpinOrbit
End of Input

EOF

-- ----------------------------------

--- Start Module: seward at Thu Jan  9 00:46:52 2025 ---

()()()()()()()()()()()()()()()()()()()()()()()()()()()()()()()()()()()()()()()()()()()()()()()()()()

                                              &SEWARD

                                   only a single process is used
                       available to each process: 4.1 GB of memory, 1 thread?
                                            pid: 1478292
()()()()()()()()()()()()()()()()()()()()()()()()()()()()()()()()()()()()()()()()()()()()()()()()()()

 The speed of LIGHT in this CALCULATION =   137.03599917700001     
               SEWARD will generate:
                  Multipole Moment integrals up to order  2
                  Kinetic Energy integrals
                  Nuclear Attraction integrals (point charge)
                  One-Electron Hamiltonian integrals
                  Velocity integrals
                  Relativistic Douglas-Kroll-Hess integrals:
                    - Parametrization         : EXP
                    - DKH order of Hamiltonian: 2
                    - DKH order of Properties : 0
                         - multipole moment operators
                         - electric potential operators
                         - contact operators
                  External field from     4 point(s) added to the one-electron Hamiltonian
                  Orbital angular momentum around ( 0.0000  0.0000  0.0000 )
                  Velocity quadrupole around ( 0.0000  0.0000  0.0000 )
                  Atomic mean-field integrals
                  Two-Electron Repulsion integrals

                   Integrals are discarded if absolute value <: 0.10E-13
                   Integral cutoff threshold is set to       <: 0.10E-15

++    Symmetry information:
      ---------------------

                    Character Table for C1 

                             E  
                    a        1  x, y, xy, Rz, z, xz, Ry, yz, Rx, I
--


++    Basis set information:
      ----------------------


      Basis set label: TA.ANO-RCC.ROOS.24S21P15D11F4G2H.11S10P9D8F4G2H......

      Electronic valence basis set:
      ------------------
      Associated Effective Charge  73.000000 au
      Associated Actual Charge     73.000000 au
      Nuclear Model: Point charge

      Shell  nPrim  nBasis  Cartesian Spherical Contaminant
         s      24      11        X                  
         p      21      10        X                  
         d      15       9                 X         
         f      11       8                 X         
         g       4       4                 X         
         h       2       2                 X         
--


++    Molecular structure info:
      -------------------------

                    ************************************************ 
                    **** Cartesian Coordinates / Bohr, Angstrom **** 
                    ************************************************ 

     Center  Label                x              y              z                     x              y              z
        1      TA               0.000000       0.000000       0.000000              0.000000       0.000000       0.000000
--


++    Operator info:
      --------------


  Net charge from external field:   -4.0000000000000000     
--


            Nuclear Potential Energy              0.00000000 au

                    Nuclear-External Field Potential Energy     -51.49911828 au
                    External Field Potential Energy               0.65821002 au 


            Total Nuclear Potential Energy            -51.49911828 au


      Basis set specifications :
      Symmetry species         a  
      Basis functions          200

 Sorry, Molden does not know how to handle
 functions with angular momentum larger than g
Note: The following floating-point exceptions are signalling: IEEE_UNDERFLOW_FLAG IEEE_DENORMAL
--- Stop Module: seward at Thu Jan  9 00:47:15 2025 /rc=_RC_ALL_IS_WELL_ ---
*** files: tantalum_so_cf.GssOrb xmldump
    saved to directory /home4/s4752295/Internship/Initial_simulations/Point_charge_model/1_electron/active_space_9_non_rel/Ta/varying_bond_length
--- Module seward spent 23 seconds ---

*** symbolic link created: INPORB -> tantalum_so_cf.GssOrb
--- Start Module: scf at Thu Jan  9 00:47:15 2025 ---

()()()()()()()()()()()()()()()()()()()()()()()()()()()()()()()()()()()()()()()()()()()()()()()()()()

                                                &SCF

                                   only a single process is used
                       available to each process: 4.1 GB of memory, 1 thread?
                                            pid: 1478295
()()()()()()()()()()()()()()()()()()()()()()()()()()()()()()()()()()()()()()()()()()()()()()()()()()

++    Input section:
      --------------

      Header of the integral files:
      
       Integrals generated by seward 4.2.0  , Thu Jan  9 00:46:52 2025


      Cartesian coordinates in Angstrom:
      -----------------------------------------------------
      No.  Label        X            Y            Z        
      -----------------------------------------------------
       1   TA         0.00000000   0.00000000   0.00000000
      -----------------------------------------------------
      Nuclear repulsion energy =  -51.49911828
--

++    Orbital specifications:
      -----------------------

      Symmetry species               1
                                     a
      Frozen orbitals                0
      Occupied orbitals             34
      Secondary orbitals           166
      Deleted orbitals               0
      Total number of orbitals     200
      Number of basis functions    200
--

      Molecular charge                           5.000

++    Optimization specifications:
      ----------------------------

      SCF Algorithm: Conventional
      Minimized density differences are used
      Number of density matrices in core                5
      Maximum number of NDDO SCF iterations            50
      Maximum number of HF SCF iterations             100
      Threshold for SCF energy change            0.10E-08
      Threshold for density matrix               0.10E-03
      Threshold for Fock matrix                  0.15E-03
      Threshold for linear dependence            0.10E-08
      Threshold at which DIIS is turned on       0.15E+00
      Threshold at which QNR/C2DIIS is turned on 0.75E-01
      Threshold for Norm(delta) (QNR/C2DIIS)     0.20E-04
      DIIS extrapolation of the SCF procedure
      All orbitals punched on: SCFORB
--

      Detected guessorb starting orbitals                                             


++ Convergence information
                                   SCF        iterations: Energy and convergence statistics

Iter     Tot. SCF        One-elec.       Two-elec.     Energy      Max Dij or  Max Fij      DNorm      TNorm      AccCon     Time
         Energy          Energy          Energy        Change      Delta Norm                                                in Sec.

 The total and one-electron energies are shifted by a value of     15000. a.u.

   1  -588.744703660 -6189.995124117  5652.749538740   0.00E+00    0.12E+00*   0.12E+00*    0.12E+02   0.15E+04   None         1.
   2  -588.811310167 -6223.197146892  5685.884955008  -0.67E-01*   0.30E-01*   0.84E-01*    0.54E+00   0.15E+04   EDIIS        1.
   3  -588.805143789 -6191.879812989  5654.573787483   0.62E-02*   0.48E-02*   0.40E-01*    0.22E+00   0.15E+04   c2DIIS       1.
   4  -588.836956891 -6206.808001701  5669.470163093  -0.32E-01*   0.82E-02*   0.10E-01*    0.11E-01   0.15E+04   QNRc2DIIS    1.
   5  -588.836859260 -6210.710395718  5673.372654741   0.98E-04*   0.43E-02*   0.12E-01*    0.20E-02   0.15E+04   QNRc2DIIS    1.
   6  -588.837349484 -6208.653157338  5671.314926136  -0.49E-03*   0.12E-03*   0.12E-03     0.24E-03   0.15E+04   QNRc2DIIS    1.
   7  -588.837349563 -6208.654017693  5671.315786413  -0.79E-07*   0.40E-04*   0.70E-04     0.26E-03   0.15E+04   QNRc2DIIS    1.
   8  -588.837349579 -6208.653940057  5671.315708760  -0.16E-07*   0.45E-05    0.11E-04     0.46E-04   0.15E+04   QNRc2DIIS    1.
   9  -588.837349579 -6208.654021707  5671.315790409  -0.26E-09    0.13E-05    0.27E-05     0.30E-03   0.15E+04   QNRc2DIIS    1.

       Convergence after  9 Macro Iterations
--

 *****************************************************************************************************************************
 *                                                                                                                           *
 *                                             SCF/KS-DFT Program, Final results                                             *
 *                                                                                                                           *
 *                                                                                                                           *
 *                                                                                                                           *
 *                                                       Final Results                                                       *
 *                                                                                                                           *
 *****************************************************************************************************************************

::    Total SCF energy                             -15588.8373495794
      One-electron energy                          -21208.6540217066
      Two-electron energy                            5671.3157904094
      Nuclear repulsion energy                        -51.4991182822
      Kinetic energy (interpolated)                 21655.3432959887
      Virial theorem                                    0.7198610124
      Total spin, S(S+1)                                0.0000000000
      Total spin, S                                     0.0000000000
      Max non-diagonal density matrix element           0.0000010233
      Max non-diagonal Fock matrix element              0.0000002713


      All orbitals with orbital energies smaller than  E(LUMO)+0.5 are printed

++    Molecular orbitals:
      -------------------

      Title: SCF orbitals

      Molecular orbitals for symmetry species 1: a  

          Some orbital energies have been scaled by powers of 10, the power is written right after the orbital index


          Orbital            1 (1)     2         3         4         5         6         7         8         9        10    
          Energy         -248.7290 -433.9130 -381.8190 -381.8190 -381.8190 -102.7405  -86.8581  -86.8581  -86.8580  -67.5967
          Occ. No.          2.0000    2.0000    2.0000    2.0000    2.0000    2.0000    2.0000    2.0000    2.0000    2.0000

        1 TA     1s         1.0000   -0.0000    0.0000    0.0000   -0.0000    0.0000   -0.0000    0.0000    0.0000    0.0000
        2 TA     2s         0.0000    1.0000    0.0000    0.0000   -0.0000    0.0000    0.0000   -0.0000   -0.0000    0.0000
        3 TA     3s        -0.0000   -0.0000   -0.0000   -0.0000    0.0000    1.0000    0.0000   -0.0000   -0.0000    0.0000
        4 TA     4s         0.0000    0.0000    0.0000    0.0000   -0.0000   -0.0000   -0.0000   -0.0000    0.0000   -0.0000
        5 TA     5s        -0.0000   -0.0000    0.0000   -0.0000    0.0000    0.0000   -0.0000   -0.0000   -0.0000    0.0000
        6 TA     6s         0.0000    0.0000   -0.0000    0.0000   -0.0000   -0.0000    0.0000    0.0000    0.0000    0.0000
        7 TA     7s        -0.0000   -0.0000   -0.0000    0.0000    0.0000    0.0000    0.0000   -0.0000   -0.0000    0.0000
        8 TA     8s         0.0000    0.0000   -0.0000   -0.0000   -0.0000   -0.0000    0.0000    0.0000    0.0000    0.0000
        9 TA     9s        -0.0000   -0.0000    0.0000   -0.0000    0.0000    0.0000   -0.0000    0.0000   -0.0000   -0.0000
       10 TA    10s         0.0000    0.0000   -0.0000   -0.0000   -0.0000   -0.0000    0.0000    0.0000    0.0000   -0.0000
       11 TA    11s        -0.0000   -0.0000   -0.0000   -0.0000    0.0000    0.0000    0.0000    0.0000   -0.0000    0.0000
       12 TA     2px       -0.0000   -0.0000    0.0270    0.9996    0.0000    0.0000    0.0000    0.0000   -0.0000    0.0000
       13 TA     3px        0.0000   -0.0000   -0.0000   -0.0000   -0.0000   -0.0000    0.0069    1.0000   -0.0000    0.0000
       14 TA     4px       -0.0000    0.0000    0.0000    0.0000    0.0000   -0.0000   -0.0000   -0.0001    0.0000    0.0000
       15 TA     5px        0.0000   -0.0000   -0.0000   -0.0000   -0.0000    0.0000    0.0000    0.0000   -0.0000   -0.0000
       16 TA     6px       -0.0000    0.0000    0.0000    0.0000    0.0000   -0.0000   -0.0000   -0.0000    0.0000   -0.0000
       17 TA     7px        0.0000   -0.0000   -0.0000   -0.0000   -0.0000    0.0000    0.0000    0.0000   -0.0000    0.0000
       18 TA     8px       -0.0000    0.0000    0.0000    0.0000    0.0000   -0.0000   -0.0000   -0.0000    0.0000    0.0000
       19 TA     9px        0.0000   -0.0000   -0.0000   -0.0000   -0.0000    0.0000    0.0000    0.0000   -0.0000   -0.0000
       20 TA    10px       -0.0000    0.0000    0.0000    0.0000    0.0000   -0.0000   -0.0000   -0.0000    0.0000    0.0000
       21 TA    11px        0.0000    0.0000   -0.0000   -0.0000   -0.0000    0.0000    0.0000    0.0000   -0.0000   -0.0000
       22 TA     2py       -0.0000    0.0000    0.9996   -0.0270    0.0000    0.0000    0.0000   -0.0000    0.0000   -0.0000
       23 TA     3py        0.0000    0.0000   -0.0000    0.0000   -0.0000    0.0000    1.0000   -0.0069    0.0000   -0.0000
       24 TA     4py       -0.0000   -0.0000    0.0000   -0.0000    0.0000   -0.0000   -0.0001    0.0000   -0.0000   -0.0000
       25 TA     5py       -0.0000    0.0000   -0.0000    0.0000   -0.0000    0.0000    0.0000   -0.0000    0.0000    0.0000
       26 TA     6py        0.0000   -0.0000    0.0000   -0.0000    0.0000   -0.0000   -0.0000    0.0000   -0.0000    0.0000
       27 TA     7py        0.0000    0.0000   -0.0000    0.0000   -0.0000    0.0000    0.0000   -0.0000    0.0000   -0.0000
       28 TA     8py       -0.0000   -0.0000    0.0000   -0.0000    0.0000   -0.0000   -0.0000    0.0000   -0.0000   -0.0000
       29 TA     9py        0.0000    0.0000   -0.0000    0.0000   -0.0000    0.0000    0.0000   -0.0000    0.0000    0.0000
       30 TA    10py       -0.0000   -0.0000    0.0000   -0.0000    0.0000   -0.0000   -0.0000    0.0000   -0.0000   -0.0000
       31 TA    11py        0.0000    0.0000   -0.0000    0.0000   -0.0000    0.0000    0.0000   -0.0000    0.0000    0.0000
       32 TA     2pz        0.0000    0.0000   -0.0000   -0.0000    1.0000   -0.0000   -0.0000    0.0000    0.0000   -0.0000
       33 TA     3pz       -0.0000    0.0000    0.0000    0.0000   -0.0000    0.0000   -0.0000    0.0000    1.0000   -0.0000
       34 TA     4pz        0.0000   -0.0000   -0.0000   -0.0000    0.0000    0.0000    0.0000   -0.0000   -0.0001    0.0000
       35 TA     5pz       -0.0000    0.0000    0.0000    0.0000   -0.0000   -0.0000   -0.0000    0.0000    0.0000    0.0000
       36 TA     6pz        0.0000   -0.0000   -0.0000   -0.0000    0.0000    0.0000    0.0000   -0.0000   -0.0000   -0.0000
       37 TA     7pz       -0.0000    0.0000    0.0000    0.0000   -0.0000   -0.0000   -0.0000    0.0000    0.0000    0.0000
       38 TA     8pz        0.0000   -0.0000   -0.0000   -0.0000    0.0000    0.0000    0.0000   -0.0000   -0.0000    0.0000
       39 TA     9pz       -0.0000    0.0000    0.0000    0.0000   -0.0000   -0.0000   -0.0000    0.0000    0.0000    0.0000
       40 TA    10pz        0.0000   -0.0000   -0.0000   -0.0000    0.0000    0.0000    0.0000   -0.0000   -0.0000    0.0000
       41 TA    11pz       -0.0000    0.0000    0.0000    0.0000   -0.0000   -0.0000   -0.0000    0.0000    0.0000   -0.0000
       42 TA     3d2-       0.0000   -0.0000   -0.0000    0.0000   -0.0000   -0.0000    0.0000   -0.0000   -0.0000    0.0227
       43 TA     4d2-      -0.0000    0.0000    0.0000   -0.0000   -0.0000   -0.0000   -0.0000    0.0000    0.0000   -0.0000
       44 TA     5d2-      -0.0000   -0.0000    0.0000   -0.0000    0.0000    0.0000   -0.0000    0.0000   -0.0000    0.0000
       45 TA     6d2-       0.0000    0.0000   -0.0000    0.0000   -0.0000   -0.0000    0.0000   -0.0000    0.0000   -0.0000
       46 TA     7d2-      -0.0000   -0.0000    0.0000   -0.0000    0.0000    0.0000    0.0000   -0.0000   -0.0000    0.0000
       47 TA     8d2-       0.0000    0.0000   -0.0000    0.0000   -0.0000    0.0000   -0.0000    0.0000   -0.0000   -0.0000
       48 TA     9d2-      -0.0000   -0.0000   -0.0000    0.0000    0.0000    0.0000    0.0000   -0.0000    0.0000    0.0000
       49 TA    10d2-       0.0000    0.0000    0.0000   -0.0000    0.0000   -0.0000   -0.0000    0.0000   -0.0000   -0.0000
       50 TA    11d2-      -0.0000   -0.0000   -0.0000    0.0000   -0.0000    0.0000    0.0000   -0.0000    0.0000    0.0000
       51 TA     3d1-      -0.0000   -0.0000    0.0000   -0.0000    0.0000   -0.0000    0.0000   -0.0000    0.0000    0.0013
       52 TA     4d1-      -0.0000    0.0000    0.0000   -0.0000    0.0000    0.0000    0.0000   -0.0000    0.0000   -0.0000
       53 TA     5d1-      -0.0000   -0.0000    0.0000   -0.0000    0.0000   -0.0000   -0.0000    0.0000   -0.0000    0.0000
       54 TA     6d1-       0.0000    0.0000   -0.0000    0.0000   -0.0000   -0.0000    0.0000   -0.0000    0.0000   -0.0000
       55 TA     7d1-      -0.0000   -0.0000    0.0000   -0.0000    0.0000    0.0000   -0.0000    0.0000   -0.0000    0.0000
       56 TA     8d1-       0.0000    0.0000   -0.0000    0.0000   -0.0000   -0.0000    0.0000   -0.0000    0.0000   -0.0000
       57 TA     9d1-      -0.0000   -0.0000    0.0000   -0.0000    0.0000    0.0000   -0.0000    0.0000   -0.0000    0.0000
       58 TA    10d1-       0.0000    0.0000    0.0000   -0.0000    0.0000    0.0000    0.0000   -0.0000    0.0000   -0.0000
       59 TA    11d1-      -0.0000   -0.0000   -0.0000    0.0000   -0.0000   -0.0000   -0.0000    0.0000   -0.0000    0.0000
       60 TA     3d0       -0.0000   -0.0000   -0.0000    0.0000    0.0000   -0.0000   -0.0000    0.0000    0.0000    0.0000
       61 TA     4d0        0.0000    0.0000   -0.0000    0.0000    0.0000   -0.0000   -0.0000    0.0000    0.0000   -0.0000
       62 TA     5d0       -0.0000   -0.0000    0.0000    0.0000   -0.0000    0.0000    0.0000   -0.0000   -0.0000    0.0000
       63 TA     6d0        0.0000    0.0000    0.0000   -0.0000    0.0000   -0.0000   -0.0000    0.0000    0.0000   -0.0000
       64 TA     7d0       -0.0000   -0.0000   -0.0000    0.0000    0.0000    0.0000    0.0000   -0.0000   -0.0000    0.0000
       65 TA     8d0        0.0000    0.0000    0.0000   -0.0000   -0.0000   -0.0000   -0.0000    0.0000    0.0000   -0.0000
       66 TA     9d0       -0.0000   -0.0000   -0.0000    0.0000    0.0000    0.0000    0.0000   -0.0000   -0.0000    0.0000
       67 TA    10d0        0.0000    0.0000    0.0000   -0.0000   -0.0000   -0.0000   -0.0000    0.0000    0.0000   -0.0000
       68 TA    11d0       -0.0000   -0.0000   -0.0000    0.0000   -0.0000    0.0000    0.0000   -0.0000   -0.0000    0.0000
       69 TA     3d1+       0.0000    0.0000    0.0000    0.0000   -0.0000    0.0000    0.0000    0.0000   -0.0000   -0.0584
       70 TA     4d1+       0.0000   -0.0000    0.0000    0.0000   -0.0000    0.0000    0.0000    0.0000   -0.0000    0.0000
       71 TA     5d1+       0.0000    0.0000    0.0000    0.0000    0.0000   -0.0000   -0.0000   -0.0000    0.0000   -0.0000
       72 TA     6d1+      -0.0000   -0.0000   -0.0000   -0.0000   -0.0000    0.0000    0.0000    0.0000   -0.0000    0.0000
       73 TA     7d1+       0.0000    0.0000    0.0000    0.0000    0.0000   -0.0000   -0.0000   -0.0000    0.0000   -0.0000
       74 TA     8d1+      -0.0000   -0.0000   -0.0000   -0.0000   -0.0000    0.0000    0.0000    0.0000   -0.0000    0.0000
       75 TA     9d1+       0.0000    0.0000    0.0000    0.0000    0.0000   -0.0000   -0.0000   -0.0000    0.0000   -0.0000
       76 TA    10d1+      -0.0000   -0.0000    0.0000    0.0000   -0.0000    0.0000    0.0000    0.0000   -0.0000    0.0000
       77 TA    11d1+       0.0000    0.0000   -0.0000   -0.0000    0.0000   -0.0000   -0.0000   -0.0000    0.0000   -0.0000
       78 TA     3d2+      -0.0000    0.0000    0.0000    0.0000    0.0000    0.0000   -0.0000   -0.0000    0.0000    0.9980
       79 TA     4d2+      -0.0000   -0.0000   -0.0000   -0.0000   -0.0000    0.0000    0.0000    0.0000   -0.0000   -0.0000
       80 TA     5d2+      -0.0000   -0.0000   -0.0000   -0.0000    0.0000   -0.0000    0.0000    0.0000   -0.0000    0.0000
       81 TA     6d2+       0.0000    0.0000    0.0000    0.0000   -0.0000    0.0000   -0.0000   -0.0000    0.0000   -0.0000
       82 TA     7d2+      -0.0000   -0.0000   -0.0000   -0.0000    0.0000   -0.0000   -0.0000   -0.0000   -0.0000    0.0000
       83 TA     8d2+       0.0000    0.0000    0.0000    0.0000   -0.0000    0.0000    0.0000    0.0000   -0.0000   -0.0000
       84 TA     9d2+      -0.0000   -0.0000    0.0000    0.0000    0.0000   -0.0000   -0.0000   -0.0000    0.0000    0.0000
       85 TA    10d2+       0.0000    0.0000   -0.0000   -0.0000   -0.0000    0.0000    0.0000    0.0000   -0.0000   -0.0000
       86 TA    11d2+      -0.0000   -0.0000    0.0000    0.0000    0.0000   -0.0000   -0.0000   -0.0000    0.0000    0.0000
       87 TA     4f3-      -0.0000   -0.0000    0.0000   -0.0000   -0.0000    0.0000    0.0000   -0.0000    0.0000   -0.0000
       88 TA     5f3-      -0.0000    0.0000   -0.0000    0.0000    0.0000    0.0000   -0.0000   -0.0000   -0.0000    0.0000
       89 TA     6f3-       0.0000   -0.0000    0.0000    0.0000   -0.0000   -0.0000    0.0000   -0.0000    0.0000    0.0000
       90 TA     7f3-      -0.0000    0.0000   -0.0000    0.0000    0.0000    0.0000   -0.0000   -0.0000   -0.0000   -0.0000
       91 TA     8f3-       0.0000   -0.0000    0.0000    0.0000   -0.0000   -0.0000    0.0000    0.0000    0.0000    0.0000
       92 TA     9f3-      -0.0000    0.0000   -0.0000    0.0000    0.0000    0.0000   -0.0000   -0.0000   -0.0000   -0.0000
       93 TA    10f3-       0.0000   -0.0000    0.0000   -0.0000   -0.0000   -0.0000    0.0000    0.0000    0.0000    0.0000
       94 TA    11f3-      -0.0000    0.0000   -0.0000    0.0000   -0.0000    0.0000   -0.0000   -0.0000    0.0000   -0.0000
       95 TA     4f2-       0.0000   -0.0000    0.0000   -0.0000    0.0000    0.0000    0.0000   -0.0000   -0.0000    0.0000
       96 TA     5f2-      -0.0000    0.0000   -0.0000    0.0000   -0.0000   -0.0000   -0.0000    0.0000    0.0000   -0.0000
       97 TA     6f2-      -0.0000   -0.0000   -0.0000    0.0000    0.0000    0.0000    0.0000   -0.0000   -0.0000    0.0000
       98 TA     7f2-       0.0000    0.0000   -0.0000    0.0000   -0.0000   -0.0000   -0.0000    0.0000    0.0000   -0.0000
       99 TA     8f2-      -0.0000   -0.0000    0.0000   -0.0000    0.0000   -0.0000    0.0000   -0.0000   -0.0000    0.0000
      100 TA     9f2-       0.0000    0.0000   -0.0000    0.0000   -0.0000    0.0000   -0.0000    0.0000   -0.0000   -0.0000
      101 TA    10f2-      -0.0000   -0.0000   -0.0000    0.0000   -0.0000   -0.0000    0.0000   -0.0000    0.0000    0.0000
      102 TA    11f2-       0.0000    0.0000   -0.0000    0.0000    0.0000    0.0000   -0.0000    0.0000   -0.0000   -0.0000
      103 TA     4f1-      -0.0000   -0.0000   -0.0000    0.0000   -0.0000   -0.0000   -0.0000    0.0000   -0.0000    0.0000
      104 TA     5f1-       0.0000   -0.0000    0.0000   -0.0000    0.0000    0.0000    0.0000   -0.0000    0.0000   -0.0000
      105 TA     6f1-       0.0000    0.0000   -0.0000    0.0000   -0.0000   -0.0000   -0.0000    0.0000   -0.0000    0.0000
      106 TA     7f1-      -0.0000    0.0000    0.0000   -0.0000    0.0000    0.0000    0.0000   -0.0000    0.0000   -0.0000
      107 TA     8f1-       0.0000   -0.0000   -0.0000    0.0000   -0.0000   -0.0000   -0.0000    0.0000   -0.0000    0.0000
      108 TA     9f1-      -0.0000    0.0000    0.0000   -0.0000    0.0000    0.0000    0.0000   -0.0000    0.0000   -0.0000
      109 TA    10f1-       0.0000    0.0000   -0.0000    0.0000   -0.0000    0.0000   -0.0000    0.0000   -0.0000    0.0000
      110 TA    11f1-       0.0000   -0.0000    0.0000   -0.0000    0.0000   -0.0000    0.0000   -0.0000    0.0000   -0.0000
      111 TA     4f0       -0.0000    0.0000    0.0000   -0.0000   -0.0000    0.0000    0.0000   -0.0000   -0.0000    0.0000
      112 TA     5f0        0.0000   -0.0000   -0.0000    0.0000    0.0000   -0.0000   -0.0000    0.0000    0.0000   -0.0000
      113 TA     6f0        0.0000    0.0000    0.0000   -0.0000   -0.0000    0.0000    0.0000   -0.0000   -0.0000    0.0000
      114 TA     7f0       -0.0000    0.0000   -0.0000    0.0000    0.0000   -0.0000   -0.0000    0.0000    0.0000   -0.0000
      115 TA     8f0        0.0000   -0.0000    0.0000   -0.0000   -0.0000    0.0000    0.0000   -0.0000   -0.0000    0.0000
      116 TA     9f0       -0.0000    0.0000   -0.0000    0.0000    0.0000   -0.0000   -0.0000    0.0000    0.0000   -0.0000
      117 TA    10f0        0.0000   -0.0000    0.0000   -0.0000   -0.0000    0.0000    0.0000   -0.0000   -0.0000    0.0000
      118 TA    11f0       -0.0000    0.0000   -0.0000    0.0000    0.0000   -0.0000    0.0000    0.0000    0.0000   -0.0000
      119 TA     4f1+      -0.0000    0.0000   -0.0000   -0.0000    0.0000    0.0000   -0.0000   -0.0000    0.0000   -0.0000
      120 TA     5f1+       0.0000   -0.0000    0.0000    0.0000   -0.0000   -0.0000    0.0000    0.0000   -0.0000    0.0000
      121 TA     6f1+       0.0000    0.0000   -0.0000   -0.0000    0.0000    0.0000   -0.0000   -0.0000    0.0000   -0.0000
      122 TA     7f1+      -0.0000   -0.0000    0.0000    0.0000   -0.0000   -0.0000    0.0000    0.0000   -0.0000    0.0000
      123 TA     8f1+       0.0000    0.0000   -0.0000   -0.0000    0.0000    0.0000   -0.0000   -0.0000    0.0000   -0.0000
      124 TA     9f1+      -0.0000   -0.0000    0.0000    0.0000   -0.0000   -0.0000    0.0000    0.0000   -0.0000    0.0000
      125 TA    10f1+       0.0000    0.0000   -0.0000   -0.0000    0.0000    0.0000   -0.0000   -0.0000    0.0000   -0.0000
      126 TA    11f1+      -0.0000   -0.0000    0.0000    0.0000   -0.0000   -0.0000    0.0000    0.0000   -0.0000    0.0000
      127 TA     4f2+       0.0000    0.0000   -0.0000   -0.0000   -0.0000   -0.0000   -0.0000   -0.0000    0.0000    0.0000
      128 TA     5f2+      -0.0000    0.0000    0.0000    0.0000   -0.0000    0.0000    0.0000    0.0000   -0.0000   -0.0000
      129 TA     6f2+      -0.0000   -0.0000    0.0000    0.0000    0.0000   -0.0000   -0.0000   -0.0000    0.0000    0.0000
      130 TA     7f2+       0.0000    0.0000    0.0000    0.0000   -0.0000    0.0000    0.0000    0.0000   -0.0000   -0.0000
      131 TA     8f2+      -0.0000   -0.0000   -0.0000   -0.0000    0.0000   -0.0000   -0.0000   -0.0000    0.0000    0.0000
      132 TA     9f2+       0.0000    0.0000    0.0000    0.0000   -0.0000    0.0000    0.0000    0.0000   -0.0000   -0.0000
      133 TA    10f2+      -0.0000    0.0000    0.0000    0.0000    0.0000   -0.0000   -0.0000   -0.0000    0.0000    0.0000
      134 TA    11f2+       0.0000   -0.0000    0.0000    0.0000   -0.0000   -0.0000    0.0000    0.0000   -0.0000   -0.0000
      135 TA     4f3+      -0.0000    0.0000    0.0000    0.0000   -0.0000    0.0000    0.0000    0.0000   -0.0000   -0.0000
      136 TA     5f3+       0.0000   -0.0000   -0.0000   -0.0000    0.0000   -0.0000   -0.0000   -0.0000    0.0000    0.0000
      137 TA     6f3+       0.0000    0.0000    0.0000    0.0000    0.0000    0.0000   -0.0000    0.0000   -0.0000   -0.0000
      138 TA     7f3+      -0.0000    0.0000   -0.0000   -0.0000    0.0000   -0.0000   -0.0000   -0.0000    0.0000    0.0000
      139 TA     8f3+       0.0000   -0.0000    0.0000    0.0000    0.0000    0.0000   -0.0000    0.0000   -0.0000   -0.0000
      140 TA     9f3+      -0.0000    0.0000    0.0000   -0.0000    0.0000   -0.0000   -0.0000   -0.0000    0.0000    0.0000
      141 TA    10f3+       0.0000   -0.0000    0.0000    0.0000    0.0000    0.0000    0.0000    0.0000   -0.0000   -0.0000
      142 TA    11f3+      -0.0000    0.0000    0.0000    0.0000    0.0000   -0.0000   -0.0000   -0.0000    0.0000    0.0000
      143 TA     5g4-      -0.0000   -0.0000   -0.0000    0.0000    0.0000   -0.0000    0.0000   -0.0000   -0.0000   -0.0000
      144 TA     6g4-       0.0000    0.0000   -0.0000    0.0000   -0.0000    0.0000    0.0000   -0.0000    0.0000    0.0000
      145 TA     7g4-      -0.0000   -0.0000    0.0000   -0.0000    0.0000   -0.0000   -0.0000    0.0000   -0.0000   -0.0000
      146 TA     8g4-       0.0000    0.0000   -0.0000    0.0000   -0.0000    0.0000    0.0000   -0.0000    0.0000    0.0000
      147 TA     5g3-       0.0000    0.0000    0.0000   -0.0000   -0.0000   -0.0000    0.0000   -0.0000    0.0000    0.0000
      148 TA     6g3-      -0.0000   -0.0000   -0.0000    0.0000    0.0000    0.0000   -0.0000   -0.0000   -0.0000   -0.0000
      149 TA     7g3-       0.0000    0.0000    0.0000    0.0000   -0.0000   -0.0000    0.0000    0.0000    0.0000    0.0000
      150 TA     8g3-       0.0000   -0.0000   -0.0000   -0.0000    0.0000    0.0000   -0.0000   -0.0000   -0.0000   -0.0000
      151 TA     5g2-       0.0000   -0.0000    0.0000   -0.0000   -0.0000   -0.0000   -0.0000    0.0000    0.0000   -0.0000
      152 TA     6g2-      -0.0000    0.0000   -0.0000    0.0000    0.0000    0.0000    0.0000   -0.0000   -0.0000    0.0000
      153 TA     7g2-       0.0000   -0.0000    0.0000   -0.0000   -0.0000   -0.0000   -0.0000    0.0000    0.0000   -0.0000
      154 TA     8g2-      -0.0000    0.0000   -0.0000    0.0000    0.0000    0.0000    0.0000   -0.0000   -0.0000    0.0000
      155 TA     5g1-      -0.0000    0.0000   -0.0000    0.0000   -0.0000    0.0000    0.0000   -0.0000    0.0000   -0.0000
      156 TA     6g1-       0.0000   -0.0000   -0.0000    0.0000   -0.0000   -0.0000    0.0000   -0.0000    0.0000    0.0000
      157 TA     7g1-      -0.0000    0.0000    0.0000   -0.0000    0.0000    0.0000   -0.0000    0.0000   -0.0000   -0.0000
      158 TA     8g1-       0.0000   -0.0000   -0.0000    0.0000   -0.0000   -0.0000    0.0000   -0.0000    0.0000    0.0000
      159 TA     5g0       -0.0000    0.0000   -0.0000    0.0000   -0.0000   -0.0000    0.0000   -0.0000    0.0000   -0.0000
      160 TA     6g0        0.0000   -0.0000    0.0000   -0.0000   -0.0000    0.0000   -0.0000    0.0000    0.0000   -0.0000
      161 TA     7g0       -0.0000    0.0000   -0.0000    0.0000    0.0000   -0.0000    0.0000   -0.0000   -0.0000    0.0000
      162 TA     8g0        0.0000   -0.0000    0.0000   -0.0000   -0.0000    0.0000   -0.0000    0.0000    0.0000   -0.0000
      163 TA     5g1+      -0.0000    0.0000   -0.0000   -0.0000   -0.0000   -0.0000    0.0000    0.0000   -0.0000    0.0000
      164 TA     6g1+      -0.0000   -0.0000   -0.0000   -0.0000   -0.0000    0.0000    0.0000    0.0000   -0.0000   -0.0000
      165 TA     7g1+       0.0000    0.0000    0.0000    0.0000    0.0000    0.0000   -0.0000   -0.0000    0.0000    0.0000
      166 TA     8g1+      -0.0000   -0.0000   -0.0000   -0.0000    0.0000    0.0000    0.0000    0.0000   -0.0000   -0.0000
      167 TA     5g2+      -0.0000   -0.0000   -0.0000   -0.0000    0.0000   -0.0000    0.0000    0.0000   -0.0000   -0.0000
      168 TA     6g2+       0.0000    0.0000    0.0000    0.0000   -0.0000    0.0000   -0.0000   -0.0000    0.0000    0.0000
      169 TA     7g2+      -0.0000   -0.0000   -0.0000   -0.0000    0.0000   -0.0000    0.0000    0.0000   -0.0000   -0.0000
      170 TA     8g2+       0.0000    0.0000    0.0000    0.0000   -0.0000    0.0000   -0.0000   -0.0000    0.0000    0.0000
      171 TA     5g3+       0.0000   -0.0000    0.0000    0.0000   -0.0000    0.0000   -0.0000    0.0000    0.0000    0.0000
      172 TA     6g3+      -0.0000    0.0000    0.0000   -0.0000   -0.0000   -0.0000   -0.0000    0.0000    0.0000   -0.0000
      173 TA     7g3+       0.0000   -0.0000   -0.0000    0.0000    0.0000    0.0000    0.0000   -0.0000   -0.0000    0.0000
      174 TA     8g3+      -0.0000    0.0000    0.0000    0.0000    0.0000   -0.0000   -0.0000    0.0000    0.0000   -0.0000
      175 TA     5g4+       0.0000    0.0000   -0.0000   -0.0000   -0.0000    0.0000    0.0000    0.0000    0.0000    0.0000
      176 TA     6g4+      -0.0000   -0.0000   -0.0000   -0.0000    0.0000   -0.0000    0.0000    0.0000   -0.0000   -0.0000
      177 TA     7g4+       0.0000    0.0000    0.0000    0.0000    0.0000    0.0000   -0.0000   -0.0000    0.0000    0.0000
      178 TA     8g4+      -0.0000   -0.0000   -0.0000   -0.0000   -0.0000   -0.0000    0.0000    0.0000   -0.0000   -0.0000
      179 TA     6h5-      -0.0000   -0.0000   -0.0000    0.0000   -0.0000   -0.0000   -0.0000    0.0000   -0.0000    0.0000
      180 TA     7h5-       0.0000    0.0000    0.0000   -0.0000    0.0000    0.0000    0.0000   -0.0000    0.0000    0.0000
      181 TA     6h4-      -0.0000    0.0000    0.0000   -0.0000    0.0000   -0.0000   -0.0000    0.0000   -0.0000   -0.0000
      182 TA     7h4-      -0.0000   -0.0000    0.0000   -0.0000    0.0000    0.0000   -0.0000    0.0000   -0.0000   -0.0000
      183 TA     6h3-      -0.0000   -0.0000    0.0000   -0.0000   -0.0000   -0.0000   -0.0000   -0.0000   -0.0000   -0.0000
      184 TA     7h3-       0.0000    0.0000    0.0000    0.0000    0.0000    0.0000   -0.0000    0.0000    0.0000    0.0000
      185 TA     6h2-      -0.0000   -0.0000    0.0000   -0.0000    0.0000    0.0000   -0.0000    0.0000    0.0000    0.0000
      186 TA     7h2-      -0.0000    0.0000    0.0000   -0.0000    0.0000   -0.0000   -0.0000    0.0000    0.0000    0.0000
      187 TA     6h1-       0.0000   -0.0000   -0.0000    0.0000   -0.0000   -0.0000   -0.0000    0.0000   -0.0000   -0.0000
      188 TA     7h1-      -0.0000    0.0000   -0.0000    0.0000    0.0000    0.0000    0.0000   -0.0000    0.0000   -0.0000
      189 TA     6h0        0.0000   -0.0000    0.0000    0.0000    0.0000    0.0000   -0.0000   -0.0000    0.0000   -0.0000
      190 TA     7h0        0.0000   -0.0000   -0.0000    0.0000   -0.0000    0.0000   -0.0000    0.0000   -0.0000    0.0000
      191 TA     6h1+       0.0000   -0.0000   -0.0000   -0.0000   -0.0000   -0.0000   -0.0000   -0.0000   -0.0000    0.0000
      192 TA     7h1+      -0.0000    0.0000   -0.0000   -0.0000    0.0000    0.0000    0.0000    0.0000    0.0000    0.0000
      193 TA     6h2+       0.0000   -0.0000   -0.0000   -0.0000    0.0000    0.0000    0.0000    0.0000    0.0000    0.0000
      194 TA     7h2+      -0.0000    0.0000   -0.0000   -0.0000   -0.0000   -0.0000    0.0000    0.0000    0.0000    0.0000
      195 TA     6h3+       0.0000   -0.0000   -0.0000   -0.0000    0.0000    0.0000    0.0000    0.0000   -0.0000    0.0000
      196 TA     7h3+       0.0000   -0.0000    0.0000    0.0000    0.0000    0.0000   -0.0000   -0.0000   -0.0000   -0.0000
      197 TA     6h4+       0.0000    0.0000    0.0000    0.0000    0.0000   -0.0000   -0.0000   -0.0000   -0.0000    0.0000
      198 TA     7h4+      -0.0000    0.0000    0.0000    0.0000   -0.0000    0.0000   -0.0000   -0.0000    0.0000    0.0000
      199 TA     6h5+       0.0000   -0.0000    0.0000    0.0000   -0.0000   -0.0000    0.0000    0.0000   -0.0000    0.0000
      200 TA     7h5+      -0.0000    0.0000   -0.0000   -0.0000    0.0000    0.0000   -0.0000   -0.0000    0.0000    0.0000

          Orbital           11        12        13        14        15        16        17        18        19        20    
          Energy          -67.5967  -67.5966  -67.5966  -67.5966  -23.2312  -17.8971  -17.8971  -17.8967  -10.7960  -10.7960
          Occ. No.          2.0000    2.0000    2.0000    2.0000    2.0000    2.0000    2.0000    2.0000    2.0000    2.0000

        1 TA     1s         0.0000    0.0000    0.0000    0.0000   -0.0000    0.0000   -0.0000   -0.0000    0.0000    0.0000
        2 TA     2s         0.0000    0.0000    0.0000    0.0000   -0.0000    0.0000   -0.0000    0.0000    0.0000    0.0000
        3 TA     3s         0.0000    0.0000    0.0000    0.0000    0.0000    0.0000    0.0000   -0.0000   -0.0000   -0.0000
        4 TA     4s         0.0000   -0.0000    0.0000   -0.0000    1.0000   -0.0000    0.0000   -0.0002   -0.0000   -0.0000
        5 TA     5s        -0.0000    0.0000   -0.0000    0.0000   -0.0006    0.0000    0.0000    0.0000    0.0000   -0.0000
        6 TA     6s        -0.0000    0.0000   -0.0000   -0.0000   -0.0000   -0.0000   -0.0000   -0.0000   -0.0000   -0.0000
        7 TA     7s        -0.0000    0.0000   -0.0000    0.0000    0.0001   -0.0000   -0.0000    0.0000   -0.0000   -0.0000
        8 TA     8s        -0.0000    0.0000   -0.0000   -0.0000   -0.0001   -0.0000   -0.0000   -0.0000   -0.0000   -0.0000
        9 TA     9s         0.0000   -0.0000    0.0000    0.0000    0.0000    0.0000    0.0000    0.0000    0.0000    0.0000
       10 TA    10s         0.0000   -0.0000   -0.0000   -0.0000    0.0000   -0.0000    0.0000   -0.0000    0.0000    0.0000
       11 TA    11s        -0.0000    0.0000   -0.0000    0.0000   -0.0000   -0.0000   -0.0000    0.0000   -0.0000   -0.0000
       12 TA     2px       -0.0000   -0.0000    0.0000   -0.0000   -0.0000    0.0000   -0.0000    0.0000    0.0000    0.0000
       13 TA     3px       -0.0000   -0.0000    0.0000    0.0000    0.0000   -0.0000    0.0001   -0.0000   -0.0000   -0.0000
       14 TA     4px       -0.0000    0.0000   -0.0000   -0.0000   -0.0000   -0.0440    0.9990   -0.0000    0.0000    0.0000
       15 TA     5px        0.0000    0.0000   -0.0000   -0.0000   -0.0000    0.0000   -0.0001    0.0000   -0.0000   -0.0000
       16 TA     6px        0.0000   -0.0000    0.0000    0.0000    0.0000    0.0000   -0.0000    0.0000   -0.0000   -0.0000
       17 TA     7px       -0.0000   -0.0000    0.0000   -0.0000   -0.0000   -0.0000    0.0001   -0.0000    0.0000    0.0000
       18 TA     8px       -0.0000    0.0000   -0.0000   -0.0000    0.0000    0.0000   -0.0001    0.0000   -0.0000   -0.0000
       19 TA     9px        0.0000   -0.0000    0.0000    0.0000   -0.0000    0.0000   -0.0000    0.0000    0.0000    0.0000
       20 TA    10px       -0.0000    0.0000   -0.0000   -0.0000    0.0000   -0.0000    0.0001   -0.0000    0.0000    0.0000
       21 TA    11px        0.0000   -0.0000    0.0000    0.0000   -0.0000    0.0000   -0.0000    0.0000    0.0000    0.0000
       22 TA     2py       -0.0000   -0.0000   -0.0000    0.0000   -0.0000   -0.0000   -0.0000   -0.0000   -0.0000    0.0000
       23 TA     3py       -0.0000   -0.0000   -0.0000    0.0000    0.0000    0.0001    0.0000    0.0000    0.0000   -0.0000
       24 TA     4py       -0.0000    0.0000    0.0000    0.0000    0.0000    0.9990    0.0440    0.0000   -0.0000    0.0000
       25 TA     5py        0.0000    0.0000    0.0000    0.0000   -0.0000   -0.0001   -0.0000   -0.0000    0.0000   -0.0000
       26 TA     6py        0.0000   -0.0000   -0.0000   -0.0000   -0.0000   -0.0000   -0.0000    0.0000    0.0000   -0.0000
       27 TA     7py       -0.0000   -0.0000   -0.0000    0.0000   -0.0000    0.0001    0.0000    0.0000   -0.0000    0.0000
       28 TA     8py       -0.0000    0.0000    0.0000   -0.0000    0.0000   -0.0001   -0.0000   -0.0000    0.0000   -0.0000
       29 TA     9py        0.0000   -0.0000   -0.0000    0.0000   -0.0000   -0.0000   -0.0000   -0.0000   -0.0000    0.0000
       30 TA    10py       -0.0000    0.0000    0.0000   -0.0000    0.0000    0.0001    0.0000    0.0000   -0.0000    0.0000
       31 TA    11py        0.0000   -0.0000   -0.0000    0.0000   -0.0000   -0.0000   -0.0000   -0.0000   -0.0000    0.0000
       32 TA     2pz        0.0000   -0.0000    0.0000   -0.0000    0.0000    0.0000   -0.0000   -0.0000    0.0000    0.0000
       33 TA     3pz        0.0000   -0.0000    0.0000   -0.0000   -0.0000   -0.0000    0.0000    0.0001    0.0000    0.0000
       34 TA     4pz       -0.0000    0.0000    0.0000    0.0000    0.0002   -0.0000    0.0000    1.0000    0.0000   -0.0000
       35 TA     5pz       -0.0000    0.0000    0.0000    0.0000    0.0000    0.0000   -0.0000   -0.0001   -0.0000    0.0000
       36 TA     6pz       -0.0000   -0.0000   -0.0000   -0.0000   -0.0000    0.0000   -0.0000   -0.0000    0.0000   -0.0000
       37 TA     7pz        0.0000    0.0000    0.0000   -0.0000    0.0000   -0.0000    0.0000    0.0001   -0.0000    0.0000
       38 TA     8pz       -0.0000    0.0000   -0.0000    0.0000    0.0000    0.0000   -0.0000   -0.0001   -0.0000    0.0000
       39 TA     9pz        0.0000   -0.0000    0.0000   -0.0000    0.0000    0.0000   -0.0000   -0.0000   -0.0000   -0.0000
       40 TA    10pz        0.0000    0.0000   -0.0000    0.0000   -0.0000   -0.0000    0.0000    0.0001    0.0000   -0.0000
       41 TA    11pz        0.0000   -0.0000    0.0000   -0.0000    0.0000    0.0000   -0.0000   -0.0000    0.0000    0.0000
       42 TA     3d2-       0.9980   -0.0162   -0.0562    0.0000    0.0000    0.0000    0.0000    0.0000    0.0000   -0.0000
       43 TA     4d2-      -0.0000    0.0000    0.0000   -0.0000   -0.0000    0.0000    0.0000    0.0000    0.1983   -0.9798
       44 TA     5d2-       0.0000   -0.0000   -0.0000    0.0000    0.0000    0.0000    0.0000   -0.0000   -0.0001    0.0004
       45 TA     6d2-      -0.0000    0.0000    0.0000   -0.0000   -0.0000   -0.0000   -0.0000   -0.0000   -0.0001    0.0003
       46 TA     7d2-       0.0000   -0.0000   -0.0000    0.0000   -0.0000   -0.0000   -0.0000   -0.0000    0.0001   -0.0006
       47 TA     8d2-      -0.0000    0.0000    0.0000   -0.0000    0.0000    0.0000    0.0000    0.0000   -0.0001    0.0004
       48 TA     9d2-       0.0000   -0.0000   -0.0000    0.0000   -0.0000   -0.0000   -0.0000    0.0000    0.0000   -0.0000
       49 TA    10d2-      -0.0000    0.0000    0.0000   -0.0000   -0.0000    0.0000    0.0000    0.0000    0.0000   -0.0001
       50 TA    11d2-       0.0000   -0.0000   -0.0000    0.0000    0.0000   -0.0000   -0.0000    0.0000    0.0000   -0.0000
       51 TA     3d1-       0.0584    0.2759    0.9594   -0.0000   -0.0000   -0.0000   -0.0000   -0.0000   -0.0000    0.0000
       52 TA     4d1-      -0.0000   -0.0000   -0.0000    0.0000   -0.0000    0.0001    0.0000    0.0000   -0.0051    0.0250
       53 TA     5d1-       0.0000    0.0000    0.0000   -0.0000    0.0000    0.0000    0.0000    0.0000    0.0000   -0.0000
       54 TA     6d1-      -0.0000   -0.0000   -0.0000    0.0000   -0.0000   -0.0000   -0.0000    0.0000    0.0000   -0.0000
       55 TA     7d1-       0.0000    0.0000    0.0000   -0.0000    0.0000   -0.0000   -0.0000    0.0000   -0.0000    0.0000
       56 TA     8d1-      -0.0000   -0.0000   -0.0000    0.0000   -0.0000    0.0000    0.0000   -0.0000    0.0000   -0.0000
       57 TA     9d1-       0.0000    0.0000    0.0000   -0.0000    0.0000   -0.0000   -0.0000    0.0000   -0.0000    0.0000
       58 TA    10d1-      -0.0000   -0.0000   -0.0000    0.0000    0.0000   -0.0000   -0.0000   -0.0000   -0.0000    0.0000
       59 TA    11d1-       0.0000    0.0000    0.0000   -0.0000   -0.0000    0.0000    0.0000    0.0000   -0.0000    0.0000
       60 TA     3d0       -0.0000    0.0000   -0.0000    1.0000    0.0000   -0.0000    0.0000   -0.0000    0.0000    0.0000
       61 TA     4d0        0.0000   -0.0000    0.0000   -0.0000   -0.0000   -0.0000    0.0000    0.0001   -0.0000    0.0000
       62 TA     5d0       -0.0000    0.0000   -0.0000    0.0000   -0.0000    0.0000    0.0000    0.0000    0.0000   -0.0000
       63 TA     6d0        0.0000   -0.0000    0.0000   -0.0000    0.0000   -0.0000   -0.0000   -0.0000    0.0000   -0.0000
       64 TA     7d0       -0.0000    0.0000   -0.0000    0.0000   -0.0000    0.0000   -0.0000    0.0000   -0.0000    0.0000
       65 TA     8d0        0.0000   -0.0000    0.0000   -0.0000    0.0000   -0.0000    0.0000    0.0000    0.0000   -0.0000
       66 TA     9d0       -0.0000    0.0000   -0.0000    0.0000   -0.0000    0.0000   -0.0000    0.0000   -0.0000   -0.0000
       67 TA    10d0        0.0000   -0.0000    0.0000   -0.0000    0.0000   -0.0000   -0.0000   -0.0000   -0.0000    0.0000
       68 TA    11d0       -0.0000    0.0000   -0.0000    0.0000   -0.0000    0.0000    0.0000    0.0000   -0.0000   -0.0000
       69 TA     3d1+       0.0013    0.9594   -0.2759   -0.0000   -0.0000    0.0000   -0.0000    0.0000    0.0000    0.0000
       70 TA     4d1+      -0.0000   -0.0000    0.0000    0.0000    0.0000   -0.0000    0.0001   -0.0000    0.0250    0.0051
       71 TA     5d1+       0.0000    0.0000   -0.0000   -0.0000    0.0000   -0.0000    0.0000   -0.0000   -0.0000   -0.0000
       72 TA     6d1+      -0.0000   -0.0000    0.0000    0.0000   -0.0000    0.0000   -0.0000    0.0000   -0.0000   -0.0000
       73 TA     7d1+       0.0000    0.0000   -0.0000   -0.0000    0.0000    0.0000   -0.0000    0.0000    0.0000    0.0000
       74 TA     8d1+      -0.0000   -0.0000    0.0000    0.0000   -0.0000   -0.0000    0.0000   -0.0000   -0.0000   -0.0000
       75 TA     9d1+       0.0000    0.0000   -0.0000   -0.0000    0.0000    0.0000   -0.0000    0.0000    0.0000    0.0000
       76 TA    10d1+      -0.0000   -0.0000    0.0000    0.0000   -0.0000    0.0000   -0.0000    0.0000    0.0000    0.0000
       77 TA    11d1+       0.0000    0.0000   -0.0000   -0.0000    0.0000   -0.0000    0.0000   -0.0000    0.0000    0.0000
       78 TA     3d2+      -0.0227    0.0562   -0.0162   -0.0000    0.0000    0.0000   -0.0000   -0.0000    0.0000    0.0000
       79 TA     4d2+       0.0000   -0.0000    0.0000    0.0000    0.0000    0.0000   -0.0000    0.0000    0.9798    0.1983
       80 TA     5d2+      -0.0000    0.0000   -0.0000   -0.0000   -0.0000    0.0000   -0.0000    0.0000   -0.0004   -0.0001
       81 TA     6d2+       0.0000   -0.0000    0.0000    0.0000    0.0000   -0.0000    0.0000   -0.0000   -0.0003   -0.0001
       82 TA     7d2+      -0.0000    0.0000   -0.0000   -0.0000   -0.0000   -0.0000    0.0000    0.0000    0.0006    0.0001
       83 TA     8d2+       0.0000   -0.0000    0.0000    0.0000    0.0000    0.0000   -0.0000    0.0000   -0.0004   -0.0001
       84 TA     9d2+      -0.0000    0.0000   -0.0000   -0.0000   -0.0000   -0.0000    0.0000   -0.0000    0.0000    0.0000
       85 TA    10d2+       0.0000   -0.0000    0.0000    0.0000    0.0000    0.0000   -0.0000   -0.0000    0.0001    0.0000
       86 TA    11d2+      -0.0000    0.0000   -0.0000   -0.0000   -0.0000   -0.0000    0.0000    0.0000    0.0000    0.0000
       87 TA     4f3-      -0.0000    0.0000    0.0000    0.0000    0.0000    0.0000    0.0000    0.0000   -0.0000    0.0000
       88 TA     5f3-       0.0000   -0.0000   -0.0000   -0.0000   -0.0000   -0.0000    0.0000   -0.0000   -0.0000    0.0000
       89 TA     6f3-      -0.0000    0.0000    0.0000    0.0000    0.0000   -0.0000   -0.0000    0.0000    0.0000   -0.0000
       90 TA     7f3-       0.0000   -0.0000   -0.0000   -0.0000   -0.0000    0.0000    0.0000   -0.0000    0.0000   -0.0000
       91 TA     8f3-      -0.0000    0.0000    0.0000    0.0000    0.0000   -0.0000    0.0000   -0.0000   -0.0000    0.0000
       92 TA     9f3-       0.0000   -0.0000   -0.0000    0.0000   -0.0000    0.0000   -0.0000   -0.0000   -0.0000    0.0000
       93 TA    10f3-      -0.0000    0.0000    0.0000   -0.0000    0.0000    0.0000   -0.0000    0.0000    0.0000   -0.0000
       94 TA    11f3-       0.0000   -0.0000    0.0000    0.0000   -0.0000   -0.0000   -0.0000    0.0000   -0.0000    0.0000
       95 TA     4f2-       0.0000   -0.0000   -0.0000    0.0000    0.0000   -0.0000   -0.0000   -0.0000    0.0000   -0.0001
       96 TA     5f2-      -0.0000    0.0000    0.0000   -0.0000   -0.0000   -0.0000   -0.0000   -0.0000    0.0000   -0.0000
       97 TA     6f2-       0.0000   -0.0000   -0.0000    0.0000    0.0000   -0.0000   -0.0000   -0.0000   -0.0000    0.0000
       98 TA     7f2-      -0.0000    0.0000    0.0000   -0.0000   -0.0000    0.0000    0.0000   -0.0000   -0.0000    0.0000
       99 TA     8f2-       0.0000   -0.0000   -0.0000    0.0000    0.0000   -0.0000   -0.0000    0.0000    0.0000   -0.0000
      100 TA     9f2-      -0.0000    0.0000    0.0000   -0.0000    0.0000   -0.0000   -0.0000   -0.0000    0.0000   -0.0000
      101 TA    10f2-       0.0000   -0.0000   -0.0000    0.0000   -0.0000   -0.0000   -0.0000    0.0000   -0.0000    0.0000
      102 TA    11f2-      -0.0000    0.0000    0.0000    0.0000    0.0000   -0.0000   -0.0000   -0.0000    0.0000   -0.0000
      103 TA     4f1-       0.0000    0.0000    0.0000   -0.0000   -0.0000   -0.0000   -0.0000   -0.0000   -0.0000    0.0000
      104 TA     5f1-      -0.0000   -0.0000   -0.0000    0.0000    0.0000   -0.0000   -0.0000    0.0000   -0.0000    0.0000
      105 TA     6f1-       0.0000    0.0000    0.0000   -0.0000   -0.0000    0.0000    0.0000    0.0000    0.0000   -0.0000
      106 TA     7f1-      -0.0000   -0.0000   -0.0000    0.0000    0.0000   -0.0000   -0.0000   -0.0000    0.0000   -0.0000
      107 TA     8f1-       0.0000    0.0000    0.0000   -0.0000   -0.0000    0.0000    0.0000    0.0000   -0.0000    0.0000
      108 TA     9f1-      -0.0000   -0.0000   -0.0000    0.0000    0.0000   -0.0000   -0.0000   -0.0000   -0.0000    0.0000
      109 TA    10f1-       0.0000    0.0000    0.0000   -0.0000    0.0000   -0.0000   -0.0000   -0.0000    0.0000   -0.0000
      110 TA    11f1-      -0.0000   -0.0000   -0.0000   -0.0000   -0.0000   -0.0000   -0.0000    0.0000    0.0000   -0.0000
      111 TA     4f0       -0.0000    0.0000   -0.0000    0.0000   -0.0000    0.0000   -0.0000   -0.0000   -0.0000    0.0000
      112 TA     5f0        0.0000   -0.0000    0.0000   -0.0000   -0.0000    0.0000   -0.0000   -0.0000   -0.0000    0.0000
      113 TA     6f0       -0.0000    0.0000   -0.0000    0.0000   -0.0000   -0.0000    0.0000    0.0000    0.0000   -0.0000
      114 TA     7f0        0.0000   -0.0000    0.0000   -0.0000    0.0000    0.0000   -0.0000   -0.0000    0.0000    0.0000
      115 TA     8f0       -0.0000    0.0000   -0.0000    0.0000   -0.0000   -0.0000    0.0000    0.0000   -0.0000   -0.0000
      116 TA     9f0       -0.0000   -0.0000    0.0000   -0.0000   -0.0000    0.0000   -0.0000   -0.0000   -0.0000    0.0000
      117 TA    10f0       -0.0000    0.0000   -0.0000    0.0000   -0.0000    0.0000    0.0000   -0.0000    0.0000   -0.0000
      118 TA    11f0       -0.0000   -0.0000    0.0000   -0.0000   -0.0000   -0.0000   -0.0000   -0.0000   -0.0000    0.0000
      119 TA     4f1+       0.0000    0.0000   -0.0000   -0.0000   -0.0000    0.0000   -0.0000    0.0000    0.0000    0.0000
      120 TA     5f1+      -0.0000   -0.0000    0.0000    0.0000   -0.0000    0.0000   -0.0000    0.0000    0.0000    0.0000
      121 TA     6f1+       0.0000    0.0000   -0.0000   -0.0000   -0.0000   -0.0000    0.0000   -0.0000   -0.0000   -0.0000
      122 TA     7f1+      -0.0000   -0.0000    0.0000    0.0000    0.0000    0.0000   -0.0000    0.0000   -0.0000   -0.0000
      123 TA     8f1+       0.0000    0.0000   -0.0000   -0.0000   -0.0000   -0.0000    0.0000   -0.0000    0.0000    0.0000
      124 TA     9f1+      -0.0000   -0.0000    0.0000    0.0000   -0.0000    0.0000   -0.0000    0.0000    0.0000    0.0000
      125 TA    10f1+       0.0000    0.0000   -0.0000   -0.0000    0.0000    0.0000   -0.0000    0.0000   -0.0000   -0.0000
      126 TA    11f1+      -0.0000   -0.0000    0.0000    0.0000   -0.0000    0.0000   -0.0000    0.0000   -0.0000   -0.0000
      127 TA     4f2+      -0.0000    0.0000   -0.0000   -0.0000    0.0000   -0.0000    0.0000    0.0000    0.0001    0.0000
      128 TA     5f2+       0.0000   -0.0000    0.0000    0.0000    0.0000   -0.0000    0.0000   -0.0000    0.0000    0.0000
      129 TA     6f2+      -0.0000    0.0000   -0.0000   -0.0000    0.0000   -0.0000    0.0000   -0.0000   -0.0000   -0.0000
      130 TA     7f2+       0.0000   -0.0000    0.0000    0.0000   -0.0000    0.0000   -0.0000    0.0000   -0.0000   -0.0000
      131 TA     8f2+      -0.0000    0.0000   -0.0000   -0.0000    0.0000   -0.0000    0.0000   -0.0000    0.0000    0.0000
      132 TA     9f2+       0.0000   -0.0000    0.0000    0.0000   -0.0000   -0.0000    0.0000    0.0000    0.0000    0.0000
      133 TA    10f2+      -0.0000    0.0000   -0.0000   -0.0000   -0.0000   -0.0000    0.0000   -0.0000   -0.0000   -0.0000
      134 TA    11f2+       0.0000   -0.0000    0.0000    0.0000   -0.0000   -0.0000    0.0000   -0.0000    0.0000    0.0000
      135 TA     4f3+       0.0000   -0.0000    0.0000    0.0000   -0.0000    0.0000    0.0000    0.0000   -0.0000   -0.0000
      136 TA     5f3+      -0.0000    0.0000   -0.0000    0.0000   -0.0000   -0.0000   -0.0000    0.0000   -0.0000   -0.0000
      137 TA     6f3+       0.0000   -0.0000    0.0000    0.0000   -0.0000    0.0000   -0.0000    0.0000    0.0000    0.0000
      138 TA     7f3+      -0.0000    0.0000   -0.0000   -0.0000    0.0000    0.0000    0.0000   -0.0000    0.0000    0.0000
      139 TA     8f3+       0.0000   -0.0000    0.0000    0.0000   -0.0000    0.0000   -0.0000    0.0000   -0.0000   -0.0000
      140 TA     9f3+      -0.0000    0.0000   -0.0000    0.0000   -0.0000    0.0000    0.0000    0.0000   -0.0000   -0.0000
      141 TA    10f3+       0.0000   -0.0000    0.0000   -0.0000   -0.0000    0.0000    0.0000    0.0000    0.0000    0.0000
      142 TA    11f3+       0.0000   -0.0000   -0.0000   -0.0000   -0.0000   -0.0000    0.0000    0.0000   -0.0000   -0.0000
      143 TA     5g4-      -0.0000   -0.0000   -0.0000   -0.0000   -0.0000   -0.0000   -0.0000   -0.0000    0.0000   -0.0000
      144 TA     6g4-       0.0000    0.0000    0.0000   -0.0000    0.0000   -0.0000   -0.0000   -0.0000    0.0000   -0.0000
      145 TA     7g4-      -0.0000   -0.0000   -0.0000   -0.0000   -0.0000    0.0000    0.0000    0.0000    0.0000   -0.0000
      146 TA     8g4-       0.0000   -0.0000   -0.0000    0.0000    0.0000    0.0000    0.0000    0.0000    0.0000   -0.0000
      147 TA     5g3-       0.0000    0.0000    0.0000   -0.0000    0.0000    0.0000    0.0000    0.0000    0.0000   -0.0000
      148 TA     6g3-      -0.0000   -0.0000   -0.0000   -0.0000   -0.0000    0.0000    0.0000   -0.0000    0.0000   -0.0000
      149 TA     7g3-       0.0000    0.0000    0.0000    0.0000    0.0000   -0.0000   -0.0000    0.0000   -0.0000    0.0000
      150 TA     8g3-      -0.0000   -0.0000   -0.0000   -0.0000   -0.0000   -0.0000   -0.0000   -0.0000   -0.0000    0.0000
      151 TA     5g2-      -0.0000    0.0000    0.0000   -0.0000   -0.0000   -0.0000   -0.0000   -0.0000   -0.0000    0.0000
      152 TA     6g2-       0.0000   -0.0000   -0.0000    0.0000    0.0000   -0.0000   -0.0000   -0.0000   -0.0000    0.0000
      153 TA     7g2-      -0.0000    0.0000    0.0000   -0.0000   -0.0000    0.0000    0.0000    0.0000    0.0000   -0.0000
      154 TA     8g2-       0.0000   -0.0000   -0.0000    0.0000    0.0000    0.0000    0.0000    0.0000    0.0000   -0.0000
      155 TA     5g1-      -0.0000   -0.0000   -0.0000    0.0000    0.0000   -0.0000   -0.0000   -0.0000    0.0000   -0.0000
      156 TA     6g1-       0.0000    0.0000    0.0000   -0.0000   -0.0000   -0.0000   -0.0000   -0.0000    0.0000   -0.0000
      157 TA     7g1-      -0.0000   -0.0000   -0.0000    0.0000    0.0000    0.0000    0.0000    0.0000   -0.0000    0.0000
      158 TA     8g1-       0.0000    0.0000    0.0000   -0.0000   -0.0000    0.0000    0.0000    0.0000   -0.0000    0.0000
      159 TA     5g0        0.0000   -0.0000    0.0000   -0.0000   -0.0000    0.0000   -0.0000   -0.0000    0.0000   -0.0000
      160 TA     6g0        0.0000    0.0000   -0.0000    0.0000   -0.0000   -0.0000   -0.0000   -0.0000    0.0000    0.0000
      161 TA     7g0       -0.0000   -0.0000    0.0000   -0.0000   -0.0000    0.0000    0.0000    0.0000   -0.0000    0.0000
      162 TA     8g0       -0.0000    0.0000   -0.0000    0.0000    0.0000   -0.0000   -0.0000    0.0000   -0.0000   -0.0000
      163 TA     5g1+      -0.0000   -0.0000    0.0000    0.0000   -0.0000    0.0000   -0.0000    0.0000   -0.0000   -0.0000
      164 TA     6g1+       0.0000    0.0000   -0.0000   -0.0000   -0.0000    0.0000   -0.0000    0.0000   -0.0000   -0.0000
      165 TA     7g1+      -0.0000   -0.0000    0.0000    0.0000    0.0000   -0.0000    0.0000   -0.0000    0.0000    0.0000
      166 TA     8g1+       0.0000    0.0000   -0.0000   -0.0000    0.0000   -0.0000    0.0000   -0.0000    0.0000    0.0000
      167 TA     5g2+       0.0000   -0.0000    0.0000    0.0000   -0.0000   -0.0000    0.0000   -0.0000   -0.0000   -0.0000
      168 TA     6g2+      -0.0000    0.0000   -0.0000   -0.0000   -0.0000   -0.0000    0.0000    0.0000   -0.0000   -0.0000
      169 TA     7g2+       0.0000   -0.0000    0.0000    0.0000   -0.0000    0.0000   -0.0000   -0.0000    0.0000    0.0000
      170 TA     8g2+      -0.0000    0.0000   -0.0000   -0.0000    0.0000    0.0000   -0.0000    0.0000    0.0000    0.0000
      171 TA     5g3+      -0.0000    0.0000   -0.0000    0.0000    0.0000    0.0000   -0.0000   -0.0000    0.0000    0.0000
      172 TA     6g3+       0.0000   -0.0000    0.0000   -0.0000    0.0000    0.0000   -0.0000   -0.0000    0.0000    0.0000
      173 TA     7g3+      -0.0000    0.0000   -0.0000    0.0000   -0.0000   -0.0000    0.0000    0.0000   -0.0000   -0.0000
      174 TA     8g3+       0.0000   -0.0000    0.0000    0.0000   -0.0000   -0.0000    0.0000    0.0000   -0.0000   -0.0000
      175 TA     5g4+      -0.0000   -0.0000    0.0000    0.0000   -0.0000    0.0000   -0.0000    0.0000   -0.0000   -0.0000
      176 TA     6g4+       0.0000    0.0000   -0.0000   -0.0000   -0.0000    0.0000   -0.0000   -0.0000   -0.0000   -0.0000
      177 TA     7g4+      -0.0000   -0.0000    0.0000    0.0000    0.0000   -0.0000    0.0000    0.0000   -0.0000   -0.0000
      178 TA     8g4+       0.0000   -0.0000    0.0000   -0.0000   -0.0000   -0.0000    0.0000   -0.0000   -0.0000   -0.0000
      179 TA     6h5-       0.0000   -0.0000   -0.0000   -0.0000   -0.0000    0.0000    0.0000   -0.0000   -0.0000    0.0000
      180 TA     7h5-       0.0000   -0.0000   -0.0000    0.0000    0.0000    0.0000    0.0000    0.0000   -0.0000    0.0000
      181 TA     6h4-      -0.0000    0.0000    0.0000   -0.0000   -0.0000    0.0000    0.0000    0.0000    0.0000   -0.0000
      182 TA     7h4-      -0.0000    0.0000    0.0000   -0.0000    0.0000    0.0000    0.0000    0.0000    0.0000   -0.0000
      183 TA     6h3-      -0.0000   -0.0000   -0.0000    0.0000   -0.0000   -0.0000   -0.0000   -0.0000   -0.0000    0.0000
      184 TA     7h3-      -0.0000   -0.0000   -0.0000    0.0000    0.0000   -0.0000   -0.0000    0.0000   -0.0000    0.0000
      185 TA     6h2-       0.0000    0.0000    0.0000   -0.0000   -0.0000    0.0000    0.0000    0.0000   -0.0000    0.0000
      186 TA     7h2-       0.0000    0.0000    0.0000   -0.0000   -0.0000    0.0000    0.0000   -0.0000   -0.0000    0.0000
      187 TA     6h1-      -0.0000    0.0000    0.0000   -0.0000   -0.0000   -0.0000   -0.0000   -0.0000    0.0000   -0.0000
      188 TA     7h1-      -0.0000    0.0000    0.0000   -0.0000    0.0000    0.0000    0.0000    0.0000    0.0000   -0.0000
      189 TA     6h0       -0.0000    0.0000    0.0000    0.0000   -0.0000    0.0000    0.0000   -0.0000    0.0000   -0.0000
      190 TA     7h0       -0.0000   -0.0000   -0.0000    0.0000   -0.0000   -0.0000   -0.0000   -0.0000    0.0000   -0.0000
      191 TA     6h1+      -0.0000    0.0000   -0.0000   -0.0000    0.0000    0.0000   -0.0000   -0.0000   -0.0000   -0.0000
      192 TA     7h1+      -0.0000    0.0000   -0.0000   -0.0000    0.0000   -0.0000    0.0000    0.0000   -0.0000   -0.0000
      193 TA     6h2+      -0.0000   -0.0000    0.0000   -0.0000    0.0000    0.0000   -0.0000   -0.0000   -0.0000   -0.0000
      194 TA     7h2+      -0.0000   -0.0000    0.0000   -0.0000    0.0000    0.0000   -0.0000   -0.0000   -0.0000   -0.0000
      195 TA     6h3+       0.0000   -0.0000    0.0000    0.0000   -0.0000   -0.0000    0.0000    0.0000   -0.0000   -0.0000
      196 TA     7h3+       0.0000    0.0000   -0.0000    0.0000   -0.0000    0.0000    0.0000    0.0000   -0.0000   -0.0000
      197 TA     6h4+      -0.0000    0.0000   -0.0000   -0.0000    0.0000   -0.0000    0.0000   -0.0000   -0.0000   -0.0000
      198 TA     7h4+      -0.0000    0.0000   -0.0000   -0.0000    0.0000   -0.0000    0.0000   -0.0000   -0.0000   -0.0000
      199 TA     6h5+      -0.0000    0.0000   -0.0000    0.0000    0.0000    0.0000   -0.0000   -0.0000   -0.0000   -0.0000
      200 TA     7h5+      -0.0000    0.0000   -0.0000   -0.0000    0.0000    0.0000   -0.0000    0.0000   -0.0000   -0.0000

          Orbital           21        22        23        24        25        26        27        28        29        30    
          Energy          -10.7957  -10.7957  -10.7956   -4.5643   -3.0928   -3.0928   -3.0896   -2.9021   -2.9021   -2.9018
          Occ. No.          2.0000    2.0000    2.0000    2.0000    2.0000    2.0000    2.0000    2.0000    2.0000    2.0000

        1 TA     1s        -0.0000    0.0000   -0.0000    0.0000   -0.0000   -0.0000    0.0000    0.0000    0.0000   -0.0000
        2 TA     2s        -0.0000   -0.0000   -0.0000    0.0000    0.0000   -0.0000   -0.0000   -0.0000    0.0000   -0.0000
        3 TA     3s        -0.0000   -0.0000    0.0000   -0.0000   -0.0000   -0.0000    0.0000   -0.0000   -0.0000    0.0000
        4 TA     4s        -0.0000   -0.0000    0.0000    0.0006    0.0000   -0.0000   -0.0000    0.0000    0.0000   -0.0000
        5 TA     5s        -0.0000    0.0000   -0.0000    0.9997    0.0000   -0.0000   -0.0037    0.0002    0.0000   -0.0000
        6 TA     6s        -0.0000    0.0000   -0.0000   -0.0158   -0.0000    0.0000    0.0020   -0.0002   -0.0000    0.0000
        7 TA     7s        -0.0000    0.0000   -0.0000    0.0177    0.0000   -0.0000   -0.0017    0.0001    0.0000   -0.0000
        8 TA     8s        -0.0000    0.0000    0.0000   -0.0082   -0.0000    0.0000    0.0008   -0.0001   -0.0000    0.0000
        9 TA     9s         0.0000   -0.0000    0.0000   -0.0045   -0.0000   -0.0000    0.0003   -0.0000   -0.0000    0.0000
       10 TA    10s        -0.0000    0.0000    0.0000    0.0003    0.0000   -0.0000   -0.0000   -0.0000   -0.0000    0.0000
       11 TA    11s        -0.0000    0.0000   -0.0000    0.0006    0.0000    0.0000   -0.0000    0.0000    0.0000   -0.0000
       12 TA     2px        0.0000   -0.0000   -0.0000    0.0000    0.0000   -0.0000   -0.0000   -0.0000    0.0000   -0.0000
       13 TA     3px        0.0000   -0.0000    0.0000    0.0000   -0.0000    0.0000    0.0000   -0.0000    0.0000    0.0000
       14 TA     4px        0.0001   -0.0001    0.0000    0.0000    0.0001   -0.0000   -0.0000   -0.0000    0.0000   -0.0000
       15 TA     5px       -0.0001    0.0001   -0.0000   -0.0000    0.9979   -0.0087   -0.0000   -0.0000    0.0000   -0.0003
       16 TA     6px        0.0000   -0.0000    0.0000   -0.0000   -0.0538    0.0005    0.0000    0.0000   -0.0000    0.0001
       17 TA     7px        0.0000   -0.0000    0.0000    0.0000    0.0308   -0.0003   -0.0000   -0.0000   -0.0000   -0.0000
       18 TA     8px       -0.0000    0.0000   -0.0000   -0.0000    0.0148   -0.0001   -0.0000   -0.0000    0.0000   -0.0000
       19 TA     9px        0.0000   -0.0000    0.0000   -0.0000   -0.0045    0.0000    0.0000    0.0000    0.0000    0.0000
       20 TA    10px        0.0000   -0.0000    0.0000    0.0000   -0.0040    0.0000    0.0000    0.0000   -0.0000    0.0000
       21 TA    11px       -0.0000    0.0000   -0.0000   -0.0000   -0.0004    0.0000    0.0000    0.0000    0.0000    0.0000
       22 TA     2py       -0.0000   -0.0000    0.0000   -0.0000    0.0000    0.0000    0.0000   -0.0000   -0.0000   -0.0000
       23 TA     3py       -0.0000   -0.0000    0.0000    0.0000   -0.0000   -0.0000    0.0000    0.0000   -0.0000    0.0000
       24 TA     4py       -0.0001   -0.0001    0.0000   -0.0000    0.0000    0.0001   -0.0000   -0.0000   -0.0000   -0.0000
       25 TA     5py        0.0001    0.0001    0.0000   -0.0000    0.0087    0.9979   -0.0000   -0.0000   -0.0000   -0.0000
       26 TA     6py       -0.0000   -0.0000   -0.0000    0.0000   -0.0005   -0.0538    0.0000    0.0000    0.0000    0.0000
       27 TA     7py       -0.0000   -0.0000    0.0000   -0.0000    0.0003    0.0308   -0.0000    0.0000   -0.0000   -0.0000
       28 TA     8py        0.0000    0.0000   -0.0000    0.0000    0.0001    0.0148   -0.0000    0.0000   -0.0000   -0.0000
       29 TA     9py       -0.0000   -0.0000    0.0000   -0.0000   -0.0000   -0.0045    0.0000    0.0000    0.0000    0.0000
       30 TA    10py       -0.0000   -0.0000   -0.0000    0.0000   -0.0000   -0.0040    0.0000    0.0000    0.0000    0.0000
       31 TA    11py        0.0000    0.0000   -0.0000   -0.0000   -0.0000   -0.0004    0.0000    0.0000    0.0000    0.0000
       32 TA     2pz       -0.0000    0.0000   -0.0000   -0.0000    0.0000    0.0000    0.0000   -0.0000   -0.0000    0.0000
       33 TA     3pz        0.0000   -0.0000   -0.0000    0.0000   -0.0000   -0.0000   -0.0000    0.0000    0.0000   -0.0000
       34 TA     4pz        0.0000   -0.0000   -0.0001   -0.0000    0.0000    0.0000    0.0001   -0.0000   -0.0000   -0.0000
       35 TA     5pz        0.0000   -0.0000    0.0001    0.0038    0.0000    0.0000    0.9979   -0.0005   -0.0000    0.0000
       36 TA     6pz        0.0000   -0.0000   -0.0000    0.0002   -0.0000   -0.0000   -0.0547    0.0001    0.0000   -0.0000
       37 TA     7pz       -0.0000    0.0000    0.0000   -0.0004    0.0000    0.0000    0.0314   -0.0000   -0.0000    0.0000
       38 TA     8pz        0.0000   -0.0000    0.0000    0.0001    0.0000    0.0000    0.0151   -0.0000   -0.0000    0.0000
       39 TA     9pz       -0.0000    0.0000   -0.0000    0.0001   -0.0000   -0.0000   -0.0046    0.0000    0.0000   -0.0000
       40 TA    10pz       -0.0000    0.0000   -0.0000   -0.0000   -0.0000   -0.0000   -0.0041    0.0000    0.0000   -0.0000
       41 TA    11pz       -0.0000    0.0000    0.0000   -0.0000   -0.0000   -0.0000   -0.0005    0.0000    0.0000   -0.0000
       42 TA     3d2-       0.0000    0.0000    0.0000    0.0000   -0.0000   -0.0000    0.0000    0.0000    0.0000    0.0000
       43 TA     4d2-       0.0140    0.0213    0.0000   -0.0000   -0.0000   -0.0000    0.0000    0.0000    0.0000    0.0000
       44 TA     5d2-      -0.0000   -0.0000   -0.0000   -0.0000    0.0000    0.0011   -0.0000   -0.0000   -0.0000   -0.0001
       45 TA     6d2-      -0.0000   -0.0000   -0.0000   -0.0000   -0.0000   -0.0002    0.0000    0.0000    0.0000    0.0000
       46 TA     7d2-       0.0000    0.0000    0.0000    0.0000   -0.0000   -0.0002    0.0000    0.0000   -0.0000    0.0000
       47 TA     8d2-      -0.0000   -0.0000   -0.0000   -0.0000   -0.0000   -0.0000   -0.0000   -0.0000   -0.0000   -0.0000
       48 TA     9d2-       0.0000    0.0000    0.0000   -0.0000    0.0000    0.0000   -0.0000   -0.0000    0.0000   -0.0000
       49 TA    10d2-       0.0000    0.0000    0.0000   -0.0000    0.0000    0.0000   -0.0000   -0.0000    0.0000   -0.0000
       50 TA    11d2-       0.0000    0.0000    0.0000    0.0000    0.0000    0.0000   -0.0000    0.0000    0.0000   -0.0000
       51 TA     3d1-       0.0000    0.0000    0.0000   -0.0000   -0.0000   -0.0000   -0.0000    0.0000    0.0000   -0.0000
       52 TA     4d1-       0.5488    0.8356    0.0000    0.0000   -0.0000   -0.0001    0.0000   -0.0000    0.0000   -0.0000
       53 TA     5d1-      -0.0002   -0.0003   -0.0000   -0.0000    0.0000    0.0044   -0.0000   -0.0000    0.0000   -0.0000
       54 TA     6d1-      -0.0001   -0.0002   -0.0000   -0.0000   -0.0000   -0.0012    0.0000    0.0000   -0.0000    0.0000
       55 TA     7d1-       0.0003    0.0005    0.0000    0.0000   -0.0000   -0.0006    0.0000    0.0000   -0.0000    0.0000
       56 TA     8d1-      -0.0002   -0.0003   -0.0000   -0.0000    0.0000    0.0001   -0.0000   -0.0000    0.0000   -0.0000
       57 TA     9d1-       0.0000    0.0000    0.0000   -0.0000    0.0000    0.0002   -0.0000   -0.0000    0.0000   -0.0000
       58 TA    10d1-       0.0000    0.0001    0.0000   -0.0000    0.0000    0.0000   -0.0000   -0.0000    0.0000   -0.0000
       59 TA    11d1-       0.0000    0.0000    0.0000   -0.0000    0.0000    0.0000    0.0000   -0.0000    0.0000   -0.0000
       60 TA     3d0       -0.0000    0.0000    0.0000   -0.0000    0.0000   -0.0000   -0.0000    0.0000    0.0000    0.0000
       61 TA     4d0       -0.0000    0.0000    1.0000    0.0000   -0.0000   -0.0000   -0.0001    0.0000    0.0000    0.0000
       62 TA     5d0        0.0000   -0.0000   -0.0004   -0.0007    0.0000    0.0000    0.0021    0.0003    0.0000   -0.0000
       63 TA     6d0        0.0000   -0.0000   -0.0002    0.0003   -0.0000   -0.0000   -0.0010   -0.0001   -0.0000    0.0000
       64 TA     7d0       -0.0000    0.0000    0.0006    0.0001   -0.0000   -0.0000   -0.0002   -0.0000   -0.0000    0.0000
       65 TA     8d0        0.0000   -0.0000   -0.0004   -0.0001    0.0000    0.0000    0.0002    0.0000    0.0000   -0.0000
       66 TA     9d0       -0.0000    0.0000    0.0000   -0.0000    0.0000    0.0000    0.0001    0.0000    0.0000   -0.0000
       67 TA    10d0       -0.0000    0.0000    0.0001   -0.0000    0.0000   -0.0000    0.0000    0.0000    0.0000   -0.0000
       68 TA    11d0       -0.0000    0.0000    0.0000   -0.0000    0.0000    0.0000   -0.0000    0.0000    0.0000   -0.0000
       69 TA     3d1+      -0.0000    0.0000   -0.0000    0.0000   -0.0000    0.0000    0.0000    0.0000   -0.0000   -0.0000
       70 TA     4d1+      -0.8356    0.5488   -0.0000   -0.0000   -0.0001    0.0000    0.0000    0.0000   -0.0000   -0.0000
       71 TA     5d1+       0.0003   -0.0002    0.0000    0.0000    0.0044   -0.0000   -0.0000   -0.0000    0.0000   -0.0002
       72 TA     6d1+       0.0002   -0.0001    0.0000   -0.0000   -0.0012    0.0000    0.0000    0.0000   -0.0000    0.0000
       73 TA     7d1+      -0.0005    0.0003   -0.0000   -0.0000   -0.0006    0.0000    0.0000    0.0000   -0.0000    0.0000
       74 TA     8d1+       0.0003   -0.0002    0.0000    0.0000    0.0001   -0.0000   -0.0000   -0.0000    0.0000   -0.0000
       75 TA     9d1+      -0.0000    0.0000   -0.0000    0.0000    0.0002   -0.0000   -0.0000   -0.0000    0.0000   -0.0000
       76 TA    10d1+      -0.0001    0.0000   -0.0000    0.0000    0.0000   -0.0000   -0.0000   -0.0000    0.0000   -0.0000
       77 TA    11d1+      -0.0000    0.0000   -0.0000    0.0000    0.0000   -0.0000   -0.0000   -0.0000   -0.0000   -0.0000
       78 TA     3d2+       0.0000   -0.0000    0.0000   -0.0000    0.0000   -0.0000   -0.0000    0.0000   -0.0000   -0.0000
       79 TA     4d2+       0.0213   -0.0140    0.0000    0.0000    0.0000   -0.0000   -0.0000    0.0000   -0.0000   -0.0001
       80 TA     5d2+      -0.0000    0.0000   -0.0000    0.0000   -0.0011    0.0000    0.0000   -0.0000   -0.0000    0.0014
       81 TA     6d2+      -0.0000    0.0000   -0.0000   -0.0000    0.0002   -0.0000   -0.0000    0.0000    0.0000   -0.0006
       82 TA     7d2+       0.0000   -0.0000    0.0000   -0.0000    0.0002   -0.0000   -0.0000   -0.0000    0.0000   -0.0001
       83 TA     8d2+      -0.0000    0.0000   -0.0000    0.0000    0.0000   -0.0000   -0.0000   -0.0000   -0.0000    0.0001
       84 TA     9d2+       0.0000   -0.0000    0.0000    0.0000   -0.0000    0.0000    0.0000    0.0000   -0.0000    0.0001
       85 TA    10d2+       0.0000   -0.0000    0.0000    0.0000   -0.0000    0.0000    0.0000    0.0000    0.0000    0.0000
       86 TA    11d2+       0.0000   -0.0000    0.0000   -0.0000   -0.0000    0.0000    0.0000    0.0000   -0.0000    0.0000
       87 TA     4f3-      -0.0000   -0.0000   -0.0000    0.0000    0.0000    0.0000   -0.0000   -0.0000    0.9999    0.0000
       88 TA     5f3-      -0.0000   -0.0000   -0.0000   -0.0000    0.0000    0.0000   -0.0000    0.0000   -0.0117   -0.0000
       89 TA     6f3-       0.0000    0.0000   -0.0000    0.0000    0.0000    0.0000   -0.0000    0.0000   -0.0093   -0.0000
       90 TA     7f3-       0.0000   -0.0000    0.0000   -0.0000    0.0000    0.0000    0.0000   -0.0000    0.0004    0.0000
       91 TA     8f3-       0.0000    0.0000   -0.0000    0.0000   -0.0000   -0.0000    0.0000   -0.0000    0.0021    0.0000
       92 TA     9f3-      -0.0000   -0.0000    0.0000   -0.0000   -0.0000   -0.0000   -0.0000   -0.0000    0.0008    0.0000
       93 TA    10f3-      -0.0000    0.0000   -0.0000    0.0000   -0.0000   -0.0000   -0.0000   -0.0000    0.0001    0.0000
       94 TA    11f3-      -0.0000   -0.0000    0.0000   -0.0000   -0.0000   -0.0000   -0.0000    0.0000   -0.0000   -0.0000
       95 TA     4f2-       0.0000    0.0000    0.0000   -0.0000   -0.0000   -0.0005    0.0000   -0.0000    0.0000   -0.0624
       96 TA     5f2-       0.0000    0.0000    0.0000    0.0000   -0.0000   -0.0002    0.0000    0.0000   -0.0000    0.0007
       97 TA     6f2-      -0.0000   -0.0000   -0.0000    0.0000   -0.0000   -0.0002    0.0000    0.0000   -0.0000    0.0006
       98 TA     7f2-      -0.0000   -0.0000   -0.0000    0.0000   -0.0000   -0.0000    0.0000   -0.0000    0.0000   -0.0000
       99 TA     8f2-       0.0000    0.0000    0.0000    0.0000    0.0000    0.0000   -0.0000   -0.0000    0.0000   -0.0001
      100 TA     9f2-       0.0000    0.0000    0.0000    0.0000    0.0000    0.0000   -0.0000   -0.0000    0.0000   -0.0000
      101 TA    10f2-      -0.0000   -0.0000   -0.0000    0.0000    0.0000    0.0000   -0.0000   -0.0000    0.0000   -0.0000
      102 TA    11f2-      -0.0000   -0.0000    0.0000   -0.0000    0.0000    0.0000   -0.0000    0.0000   -0.0000    0.0000
      103 TA     4f1-       0.0001    0.0001    0.0000    0.0000   -0.0000   -0.0027    0.0000   -0.0000   -0.0000    0.0023
      104 TA     5f1-       0.0000    0.0000    0.0000   -0.0000   -0.0000   -0.0006    0.0000    0.0000    0.0000   -0.0000
      105 TA     6f1-      -0.0000   -0.0000   -0.0000    0.0000   -0.0000   -0.0003    0.0000    0.0000    0.0000   -0.0000
      106 TA     7f1-      -0.0000   -0.0000    0.0000    0.0000    0.0000    0.0001   -0.0000   -0.0000   -0.0000    0.0000
      107 TA     8f1-      -0.0000   -0.0000   -0.0000    0.0000    0.0000    0.0001   -0.0000   -0.0000   -0.0000    0.0000
      108 TA     9f1-       0.0000    0.0000    0.0000   -0.0000    0.0000    0.0000   -0.0000   -0.0000   -0.0000    0.0000
      109 TA    10f1-      -0.0000   -0.0000   -0.0000   -0.0000    0.0000    0.0000    0.0000   -0.0000   -0.0000    0.0000
      110 TA    11f1-       0.0000    0.0000    0.0000    0.0000   -0.0000   -0.0000    0.0000    0.0000    0.0000   -0.0000
[...]
   18         0.513987       9 0.5  1.0000    8 0.5  0.0000    7 0.5  0.0000    6 0.5  0.0000    5 0.5  0.0000
 -------------------------------------------------------------------------------------------------------


      ****************************************************************************************************
      *                                                                                                  *
      *                                    Special properties section                                    *
      *                                                                                                  *
      ****************************************************************************************************


++ Dipole transition strengths (SO states):
   ----------------------------------------
    for osc. strength at least    1.0000000000000001E-005

      From   To        Osc. strength     Einstein coefficients Ax, Ay, Az (sec-1)    Total A (sec-1)
     -----------------------------------------------------------------------------------------------
         1   13       1.08227915E-01  7.83611400E+08  1.48563395E+06  4.85861896E+07  8.33683224E+08
         1   15       1.01923257E-01  1.48563398E+06  7.83611395E+08  2.11997214E+04  7.85118228E+08
         1   17       8.00531785E-03  8.69828273E+03  6.79418415E+07  1.02907206E-10  6.79505398E+07
         2   14       1.08227915E-01  7.83611400E+08  1.48563395E+06  4.85861896E+07  8.33683224E+08
         2   16       1.01923257E-01  1.48563398E+06  7.83611395E+08  2.11997214E+04  7.85118228E+08
         2   18       8.00531785E-03  8.69828273E+03  6.79418415E+07  1.02907206E-10  6.79505398E+07
         3   13       1.01923256E-01  1.48563397E+06  7.83611388E+08  2.11997287E+04  7.85118222E+08
         3   15       1.08227916E-01  7.83611398E+08  1.48563395E+06  4.85861993E+07  8.33683231E+08
         3   17       8.00531798E-03  6.79418426E+07  8.69828455E+03  7.31252854E-09  6.79505409E+07
         4   14       1.01923256E-01  1.48563397E+06  7.83611388E+08  2.11997287E+04  7.85118222E+08
         4   16       1.08227916E-01  7.83611398E+08  1.48563395E+06  4.85861993E+07  8.33683231E+08
         4   18       8.00531798E-03  6.79418426E+07  8.69828455E+03  7.31252854E-09  6.79505409E+07
         5   11       1.16249746E-03  1.45235470E+06  9.25826192E+02  1.59257090E-10  1.45328052E+06
         5   13       5.20199486E-03  1.78776822E+03  3.69345179E+07  2.27787947E+06  3.92141851E+07
         5   15       9.62760461E-02  3.69345229E+07  1.78776627E+03  6.88821173E+08  7.25757484E+08
         5   17       1.06077971E-01  8.81497982E+08  5.61924671E+05  2.00839400E-07  8.82059907E+08
         6   12       1.16249746E-03  1.45235470E+06  9.25826192E+02  1.59257090E-10  1.45328052E+06
         6   14       5.20199486E-03  1.78776822E+03  3.69345179E+07  2.27787947E+06  3.92141851E+07
         6   16       9.62760461E-02  3.69345229E+07  1.78776627E+03  6.88821173E+08  7.25757484E+08
         6   18       1.06077971E-01  8.81497982E+08  5.61924671E+05  2.00839400E-07  8.82059907E+08
         7   11       1.16249744E-03  9.25826196E+02  1.45235467E+06  5.54727430E-14  1.45328050E+06
         7   13       9.62760463E-02  3.69345142E+07  1.78776628E+03  6.88821183E+08  7.25757485E+08
         7   15       5.20199487E-03  1.78776354E+03  3.69345180E+07  2.27787947E+06  3.92141852E+07
         7   17       1.06077971E-01  5.61924665E+05  8.81497985E+08  4.62277495E-10  8.82059910E+08
         8   12       1.16249744E-03  9.25826196E+02  1.45235467E+06  5.54727430E-14  1.45328050E+06
         8   14       9.62760463E-02  3.69345142E+07  1.78776628E+03  6.88821183E+08  7.25757485E+08
         8   16       5.20199487E-03  1.78776354E+03  3.69345180E+07  2.27787947E+06  3.92141852E+07
         8   18       1.06077971E-01  5.61924665E+05  8.81497985E+08  4.62277495E-10  8.82059910E+08
         9   11       4.25136693E-05  2.68358505E-10  2.64800679E-13  5.22177455E+04  5.22177455E+04
         9   13       4.76868802E-02  3.69927095E+05  3.56539264E+08  1.90855316E-12  3.56909191E+08
         9   15       4.76868786E-02  3.56539252E+08  3.69927093E+05  7.28183885E-08  3.56909179E+08
         9   17       1.13153641E-01  1.64797499E-07  1.52163821E-10  9.34493479E+08  9.34493479E+08
        10   12       4.25136693E-05  2.68358505E-10  2.64800679E-13  5.22177455E+04  5.22177455E+04
        10   14       4.76868802E-02  3.69927095E+05  3.56539264E+08  1.90855316E-12  3.56909191E+08
        10   16       4.76868786E-02  3.56539252E+08  3.69927093E+05  7.28183885E-08  3.56909179E+08
        10   18       1.13153641E-01  1.64797499E-07  1.52163821E-10  9.34493479E+08  9.34493479E+08
        11   13       4.48712796E-01  1.23188281E+06  1.18730039E+09  1.05163985E-10  1.18853227E+09
        11   15       4.48712796E-01  1.18730039E+09  1.23188281E+06  1.57041365E-07  1.18853227E+09
        11   17       4.72487784E-01  1.99569438E-07  9.38892937E-12  1.47276386E+09  1.47276386E+09
        12   14       4.48712796E-01  1.23188281E+06  1.18730039E+09  1.05163985E-10  1.18853227E+09
        12   16       4.48712796E-01  1.18730039E+09  1.23188281E+06  1.57041365E-07  1.18853227E+09
        12   18       4.72487784E-01  1.99569438E-07  9.38892937E-12  1.47276386E+09  1.47276386E+09
        13   17       5.96819460E-05  1.17826790E+00  1.13562574E+03  2.99093908E-15  1.13680400E+03
        14   18       5.96819460E-05  1.17826790E+00  1.13562574E+03  2.99093908E-15  1.13680400E+03
        15   17       5.96819505E-05  1.13562582E+03  1.17826779E+00  4.78606475E-12  1.13680409E+03
        16   18       5.96819505E-05  1.13562582E+03  1.17826779E+00  4.78606475E-12  1.13680409E+03
     -----------------------------------------------------------------------------------------------
--

++ Velocity transition strengths (SO states):
   ------------------------------------------
    for osc. strength at least    1.0000000000000001E-005

      From   To        Osc. strength     Einstein coefficients Ax, Ay, Az (sec-1)    Total A (sec-1)
     -----------------------------------------------------------------------------------------------
         1    5       5.86234334E-05  1.01238626E-02  5.21782869E+01  4.03312035E-03  5.21924438E+01
         1    7       6.20055864E-05  5.21782850E+01  1.01238746E-02  3.01516584E+00  5.52035747E+01
         1   13       8.63424017E-02  6.24892952E+08  1.18472266E+06  3.90230234E+07  6.65100698E+08
         1   15       8.12786996E-02  1.18472269E+06  6.24892948E+08  1.70270036E+04  6.26094697E+08
         1   17       6.53585126E-03  7.10163934E+03  5.54705413E+07  7.53375217E-11  5.54776430E+07
         2    6       5.86234334E-05  1.01238626E-02  5.21782869E+01  4.03312035E-03  5.21924438E+01
         2    8       6.20055864E-05  5.21782850E+01  1.01238746E-02  3.01516584E+00  5.52035747E+01
         2   14       8.63424017E-02  6.24892952E+08  1.18472266E+06  3.90230234E+07  6.65100698E+08
         2   16       8.12786996E-02  1.18472269E+06  6.24892948E+08  1.70270036E+04  6.26094697E+08
         2   18       6.53585126E-03  7.10163934E+03  5.54705413E+07  7.53375217E-11  5.54776430E+07
         3    5       6.20055890E-05  5.21782860E+01  1.01238638E-02  3.01516713E+00  5.52035770E+01
         3    7       5.86234295E-05  1.01238721E-02  5.21782833E+01  4.03312075E-03  5.21924403E+01
         3   13       8.12786990E-02  1.18472268E+06  6.24892943E+08  1.70270095E+04  6.26094693E+08
         3   15       8.63424025E-02  6.24892951E+08  1.18472266E+06  3.90230312E+07  6.65100704E+08
         3   17       6.53585136E-03  5.54705422E+07  7.10164075E+03  5.71328411E-09  5.54776438E+07
         4    6       6.20055890E-05  5.21782860E+01  1.01238638E-02  3.01516713E+00  5.52035770E+01
         4    8       5.86234295E-05  1.01238721E-02  5.21782833E+01  4.03312075E-03  5.21924403E+01
         4   14       8.12786990E-02  1.18472268E+06  6.24892943E+08  1.70270095E+04  6.26094693E+08
         4   16       8.63424025E-02  6.24892951E+08  1.18472266E+06  3.90230312E+07  6.65100704E+08
         4   18       6.53585136E-03  5.54705422E+07  7.10164075E+03  5.71328411E-09  5.54776438E+07
         5    9       3.14570092E-04  3.03594697E+01  1.93531165E-02  2.87228379E-14  3.03788228E+01
         5   11       9.06575630E-04  1.13262523E+06  7.22009625E+02  1.31502846E-10  1.13334724E+06
         5   13       4.09679534E-03  1.40727255E+03  2.90736415E+07  1.80792096E+06  3.08829697E+07
         5   15       7.63807399E-02  2.90736454E+07  1.40727100E+03  5.46707695E+08  5.75782747E+08
         5   17       8.47565671E-02  7.04321568E+08  4.48980796E+05  1.60065797E-07  7.04770549E+08
         6   10       3.14570092E-04  3.03594697E+01  1.93531165E-02  2.87228379E-14  3.03788228E+01
         6   12       9.06575630E-04  1.13262523E+06  7.22009625E+02  1.31502846E-10  1.13334724E+06
         6   14       4.09679534E-03  1.40727255E+03  2.90736415E+07  1.80792096E+06  3.08829697E+07
         6   16       7.63807399E-02  2.90736454E+07  1.40727100E+03  5.46707695E+08  5.75782747E+08
         6   18       8.47565671E-02  7.04321568E+08  4.48980796E+05  1.60065797E-07  7.04770549E+08
         7    9       3.14570094E-04  1.93531199E-02  3.03594699E+01  1.35674903E-17  3.03788230E+01
         7   11       9.06575612E-04  7.22009660E+02  1.13262520E+06  2.04425202E-14  1.13334721E+06
         7   13       7.63807401E-02  2.90736386E+07  1.40727100E+03  5.46707703E+08  5.75782749E+08
         7   15       4.09679535E-03  1.40726883E+03  2.90736415E+07  1.80792096E+06  3.08829698E+07
         7   17       8.47565674E-02  4.48980791E+05  7.04321571E+08  3.63905119E-10  7.04770552E+08
         8   10       3.14570094E-04  1.93531199E-02  3.03594699E+01  1.35674903E-17  3.03788230E+01
         8   12       9.06575612E-04  7.22009660E+02  1.13262520E+06  2.04425202E-14  1.13334721E+06
         8   14       7.63807401E-02  2.90736386E+07  1.40727100E+03  5.46707703E+08  5.75782749E+08
         8   16       4.09679535E-03  1.40726883E+03  2.90736415E+07  1.80792096E+06  3.08829698E+07
         8   18       8.47565674E-02  4.48980791E+05  7.04321571E+08  3.63905119E-10  7.04770552E+08
         9   11       1.69354937E-05  2.32716515E-10  1.07134898E-13  2.08012244E+04  2.08012244E+04
         9   13       3.87538588E-02  3.00630952E+05  2.89750981E+08  1.09611940E-12  2.90051612E+08
         9   15       3.87538575E-02  2.89750971E+08  3.00630951E+05  5.95138265E-08  2.90051602E+08
         9   17       8.89122592E-02  1.28958239E-07  1.24745264E-10  7.34295551E+08  7.34295551E+08
        10   12       1.69354937E-05  2.32716515E-10  1.07134898E-13  2.08012244E+04  2.08012244E+04
        10   14       3.87538588E-02  3.00630952E+05  2.89750981E+08  1.09611940E-12  2.90051612E+08
        10   16       3.87538575E-02  2.89750971E+08  3.00630951E+05  5.95138265E-08  2.90051602E+08
        10   18       8.89122592E-02  1.28958239E-07  1.24745264E-10  7.34295551E+08  7.34295551E+08
        11   13       4.12220787E-01  1.13170266E+06  1.09074581E+09  9.27950636E-11  1.09187751E+09
        11   15       4.12220787E-01  1.09074581E+09  1.13170266E+06  1.43754460E-07  1.09187751E+09
        11   17       4.30106144E-01  1.82318020E-07  7.51977927E-12  1.34066320E+09  1.34066320E+09
        12   14       4.12220787E-01  1.13170266E+06  1.09074581E+09  9.27950636E-11  1.09187751E+09
        12   16       4.12220787E-01  1.09074581E+09  1.13170266E+06  1.43754460E-07  1.09187751E+09
        12   18       4.30106144E-01  1.82318020E-07  7.51977927E-12  1.34066320E+09  1.34066320E+09
        13   17       2.89788650E-04  5.72115772E+00  5.51410628E+03  3.64358629E-15  5.51982743E+03
        14   18       2.89788650E-04  5.72115772E+00  5.51410628E+03  3.64358629E-15  5.51982743E+03
        15   17       2.89788668E-04  5.51410662E+03  5.72115794E+00  9.87175272E-12  5.51982777E+03
        16   18       2.89788668E-04  5.51410662E+03  5.72115794E+00  9.87175272E-12  5.51982777E+03
     -----------------------------------------------------------------------------------------------
--

++ Length and velocity gauge comparison (SO states):

 --------------------------------------------------
 A comparison between the dipole oscillator strengths in 
 length and velocity gauge will be performed

 All dipole oscillator differences above the tolerance of   0.10000000000000001       will be printed 

 Due to basis set deficiency these oscillator may be problematic 

 The tolerance is defined as ABS(1-O_l/O_v) 
 O_l : dipole oscillator strength in length gauge
 O_p : dipole oscillator strength in velocity gauge
 --------------------------------------------------

  Problematic transitions have been found

      From   To       Difference (%) Osc. st. (len.) Osc. st. (vel.)
     ---------------------------------------------------------------
         1    5      --------------- below threshold  5.86234334E-05
         1    7      --------------- below threshold  6.20055864E-05
         1   13            25.347353  1.08227915E-01  8.63424017E-02
         1   15            25.399714  1.01923257E-01  8.12786996E-02
         1   17            22.483171  8.00531785E-03  6.53585126E-03
         2    6      --------------- below threshold  5.86234334E-05
         2    8      --------------- below threshold  6.20055864E-05
         2   14            25.347353  1.08227915E-01  8.63424017E-02
         2   16            25.399714  1.01923257E-01  8.12786996E-02
         2   18            22.483171  8.00531785E-03  6.53585126E-03
         3    5      --------------- below threshold  6.20055890E-05
         3    7      --------------- below threshold  5.86234295E-05
         3   13            25.399714  1.01923256E-01  8.12786990E-02
         3   15            25.347353  1.08227916E-01  8.63424025E-02
         3   17            22.483171  8.00531798E-03  6.53585136E-03
         4    6      --------------- below threshold  6.20055890E-05
         4    8      --------------- below threshold  5.86234295E-05
         4   14            25.399714  1.01923256E-01  8.12786990E-02
         4   16            25.347353  1.08227916E-01  8.63424025E-02
         4   18            22.483171  8.00531798E-03  6.53585136E-03
         5    9      --------------- below threshold  3.14570092E-04
         5   11            28.229507  1.16249746E-03  9.06575630E-04
         5   13            26.977172  5.20199486E-03  4.09679534E-03
         5   15            26.047543  9.62760461E-02  7.63807399E-02
         5   17            25.156049  1.06077971E-01  8.47565671E-02
         6   10      --------------- below threshold  3.14570092E-04
         6   12            28.229507  1.16249746E-03  9.06575630E-04
         6   14            26.977172  5.20199486E-03  4.09679534E-03
         6   16            26.047543  9.62760461E-02  7.63807399E-02
         6   18            25.156049  1.06077971E-01  8.47565671E-02
         7    9      --------------- below threshold  3.14570094E-04
         7   11            28.229508  1.16249744E-03  9.06575612E-04
         7   13            26.047543  9.62760463E-02  7.63807401E-02
         7   15            26.977172  5.20199487E-03  4.09679535E-03
         7   17            25.156049  1.06077971E-01  8.47565674E-02
         8   10      --------------- below threshold  3.14570094E-04
         8   12            28.229508  1.16249744E-03  9.06575612E-04
         8   14            26.047543  9.62760463E-02  7.63807401E-02
         8   16            26.977172  5.20199487E-03  4.09679535E-03
         8   18            25.156049  1.06077971E-01  8.47565674E-02
         9   11           151.032949  4.25136693E-05  1.69354937E-05
         9   13            23.050663  4.76868802E-02  3.87538588E-02
         9   15            23.050663  4.76868786E-02  3.87538575E-02
         9   17            27.264387  1.13153641E-01  8.89122592E-02
        10   12           151.032949  4.25136693E-05  1.69354937E-05
        10   14            23.050663  4.76868802E-02  3.87538588E-02
        10   16            23.050663  4.76868786E-02  3.87538575E-02
        10   18            27.264387  1.13153641E-01  8.89122592E-02
        13   17            79.405009  5.96819460E-05  2.89788650E-04
        14   18            79.405009  5.96819460E-05  2.89788650E-04
        15   17            79.405009  5.96819505E-05  2.89788668E-04
        16   18            79.405009  5.96819505E-05  2.89788668E-04
     ---------------------------------------------------------------

 Number of problematic transitions =                    52

--

 Electric-dipole - electric-octupole not included
++ I/O STATISTICS
 
  I. General I/O information
  - - - - - - - - - - - - - - - - - - - - - - - - - - - - - - - - - - - - - - - - - - -
  Unit  Name          Flsize      Write/Read            MBytes           Write/Read
                      (MBytes)       Calls              In/Out           Time, sec.
  - - - - - - - - - - - - - - - - - - - - - - - - - - - - - - - - - - - - - - - - - - -
   1  SCRATCH           0.00 .       9/      45 .      0.0/      0.0 .       0/       0
   2  ANNI              0.00 .       0/       0 .      0.0/      0.0 .       0/       0
   3  RUNFILE          15.28 .     322/    9923 .      2.3/     72.0 .       0/       0
   4  ONEINT            6.58 .       0/   28767 .      0.0/   3777.9 .       0/       0
   5  JOBIPH            7.71 .       0/      92 .      0.0/      0.9 .       0/       0
   6  ORDINT          771.03 .       1/    6169 .      0.0/   1542.0 .       0/       0
  - - - - - - - - - - - - - - - - - - - - - - - - - - - - - - - - - - - - - - - - - - -
   *  TOTAL           800.61 .     332/   44996 .      2.3/   5392.8 .       0/       0
  - - - - - - - - - - - - - - - - - - - - - - - - - - - - - - - - - - - - - - - - - - -
 
  II. I/O Access Patterns
  - - - - - - - - - - - - - - - - - - - -
  Unit  Name               % of random
                         Write/Read calls
  - - - - - - - - - - - - - - - - - - - -
   1  SCRATCH             88.9/ 100.0
   2  ANNI                 0.0/   0.0
   3  RUNFILE             28.6/  10.8
   4  ONEINT               0.0/  13.4
   5  JOBIPH               0.0/  76.1
   6  ORDINT             100.0/   0.0
  - - - - - - - - - - - - - - - - - - - -
--
--- Stop Module: rassi at Thu Jan  9 00:48:58 2025 /rc=_RC_ALL_IS_WELL_ ---
*** files: xmldump
    saved to directory /home4/s4752295/Internship/Initial_simulations/Point_charge_model/1_electron/active_space_9_non_rel/Ta/varying_bond_length
--- Module rassi spent 4 seconds ---

.##################.
.# Happy landing! #.
.##################.

    Timing: Wall=125.77 User=71.42 System=51.92

###############################################################################
Hbrk Cluster
Job 14530257 for user s4752295
Finished at: Thu Jan  9 00:48:58 CET 2025

Job details:
============

Job ID                         : 14530257
Name                           : Ta_no_c_light
User                           : s4752295
Partition                      : regularmedium
Nodes                          : node99
Number of Nodes                : 1
Cores                          : 1
Number of Tasks                : 1
State                          : RUNNING  
Submit                         : 2025-01-09T00:46:48
Start                          : 2025-01-09T00:46:49
End                            : --
Reserved walltime              : 15:00:00
Used walltime                  : 00:02:09
Used CPU time                  : -- 
% User (Computation)           : --
% System (I/O)                 : --
Total memory reserved          : 25000M
Maximum memory used            : --

Acknowledgements:
=================

Please see this page for information about acknowledging Hbrk in your publications:

https://wiki.hpc.rug.nl/habrok/introduction/scientific_output

################################################################################
