   This run of MOLCAS is using the pymolcas driver

                             OPE
                             OPE          NMOL  CASOP  ENMOLC A   SO
                 OPE        NMOLC        AS  OP EN  MO LC     AS  OP
                OPENM       OL CA        SO  PE NM  OL CA     SOP EN
                OP EN      MO   LC       AS  OP ENMOL  CASO   PENMOL
                OP  EN     MO   LC       AS  OP EN     MO     LC ASO
               OP   E  NMOL  C  AS       OP  EN MO     LC     AS  OP
               OP  E   NMO   LC AS        OPEN  MO     LCASOP EN   M
               O  PEN   MO  LCA  SO
            OPE   NMO   L   CAS    OP
        OPENMOL  CASOP     ENMOL   CASOPE
     OPENMOLCA   SOPENMOLCASOPEN   MOLCASOPE
    OPENMOLCAS   OP           EN   MOL    CAS
    OPENMOLCAS       OP  ENM        O     LCA
    OPENMOLCAS    OPEN  MOLCASO     P  E  NMO
    OPENMOLCAS     OP               E  N  MOL
    OPENMOLCA   SO           PENM   O  L  CAS    OPEN    MO    LCAS
    OPENMOLCA   SOP           ENM   O  L  CAS   OP  EN  MOLC  AS   O
    OPENMOLCA   SOPE           NM      O  LCA   S      OP  EN MO
    OPENMOLC                AS         O  PEN   M      OL  CA  SOPE
    OPENMO        LCASOPE  NMOL        C  ASO   P      ENMOLC     AS
    OPE     NMO      LCA  SO     P     E   NM   OL  CA SO  PE N   MO
          OPENMOLCA            SOPE   NMO        LCAS  O    P  ENMO
     OPENMOLCASOPENMOLCASOPENMOLCASOPENMOLCA
        OPENMOLCASOPENMOLCASOPENMOLCASOPE
            OPENMOLCASOPENMOLCASOPENM
               OPENMOLCASOPENMOLCA        version: o91e1abe7de707b ?
                   OPENMOLCASO
                       OPE                tag:

 OpenMolcas is free software; you can redistribute it and/or modify it
 under the terms of the GNU Lesser General Public License version 2.1.
 OpenMolcas is distributed in the hope that it will be useful, but it
 is provided "as is" and without any express or implied warranties.
 For more details see the full text of the license in the file
 LICENSE or in <http://www.gnu.org/licenses/>.

                 Copyright (C) The OpenMolcas Authors
           For the author list and the recommended citation,
                   consult the file CONTRIBUTORS.md

           *************************************************
           * pymolcas version py2.10                       *
           *   build 3068ae8b88c9345ec6cfef6fef7f1169      *
           *   (after the EMIL interpreter by V. Veryazov) *
           *************************************************

configuration info
------------------
Host name: login1 (Linux)
C Compiler ID: GNU
C flags: -std=gnu99
Fortran Compiler ID: GNU
Fortran flags: -fno-aggressive-loop-optimizations -cpp -fdefault-integer-8 -fmax-stack-var-size=1048576
Definitions: _MOLCAS_;_I8_;_LINUX_;_MKL_
Parallel: OFF (GA=OFF)


   ---------------------------------------------------------------------------------------------------------------------------------------------
  |
  |           Project: tungsten_so_cf
  |    Submitted from: /home4/s4752295/Internship/Initial_simulations/Point_charge_model/1_electron/active_space_9_non_rel/W/varying_bond_length
  |      Scratch area: /tmp/tungsten_so_cf
  |   Save outputs to: /home4/s4752295/Internship/Initial_simulations/Point_charge_model/1_electron/active_space_9_non_rel/W/varying_bond_length
  |            Molcas: /home4/s4752295/Internship/Molcas/recomp_try/OpenMolcas-master/build
  |
  | Scratch area is empty
  |
  |    MOLCAS_DRIVER = /home4/s4752295/Internship/Molcas/bin/pymolcas
  |    MOLCAS_NPROCS = 1
  |    MOLCAS_SOURCE = /home4/s4752295/Internship/Molcas/recomp_try/OpenMolcas-master
  | MOLCAS_STRUCTURE = 0
  |
   ---------------------------------------------------------------------------------------------------------------------------------------------

++ ---------   Input file   ---------

&SEWARD
AMFi

CLIG
$R

Basis Set
W.ANO-rcc.Roos.24s21p15d11f4g2h.11s10p9d8f4g2h.
Spherical d
W            0.0        0.0     0.0
End of Basis

Xfield

4
0.000000,  0.00000,  0.3150     -1.0
0.272798,  0.00000, -0.1575     -1.0
-0.136399,  0.23625, -0.1575    -1.0
-0.136399, -0.23625, -0.1575    -1.0

End of input

&SCF
Occupied
34
Iterations
   50  100
End of Input

&RASSCF
LumOrb
Symmetry
1
Spin
2
Nactel
1 0 0
CIRoot
9 9 1
inactive
34
ras2
9
End of Input

>>> COPY tungsten_so_cf.JobIph $SLURM_SUBMIT_DIR/tungsten_so_cf.doublet.JobIph

>>> COPY $SLURM_SUBMIT_DIR/tungsten_so_cf.doublet.JobIph ./JOB002

&RASSI
NROFJobIph
1 All
SpinOrbit
End of Input

EOF

-- ----------------------------------

--- Start Module: seward at Thu Jan  9 20:44:32 2025 ---

()()()()()()()()()()()()()()()()()()()()()()()()()()()()()()()()()()()()()()()()()()()()()()()()()()

                                              &SEWARD

                                   only a single process is used
                       available to each process: 4.1 GB of memory, 1 thread?
                                            pid: 2812653
()()()()()()()()()()()()()()()()()()()()()()()()()()()()()()()()()()()()()()()()()()()()()()()()()()

 The speed of LIGHT in this CALCULATION =   137.03599917700001     
               SEWARD will generate:
                  Multipole Moment integrals up to order  2
                  Kinetic Energy integrals
                  Nuclear Attraction integrals (point charge)
                  One-Electron Hamiltonian integrals
                  Velocity integrals
                  Relativistic Douglas-Kroll-Hess integrals:
                    - Parametrization         : EXP
                    - DKH order of Hamiltonian: 2
                    - DKH order of Properties : 0
                         - multipole moment operators
                         - electric potential operators
                         - contact operators
                  External field from     4 point(s) added to the one-electron Hamiltonian
                  Orbital angular momentum around ( 0.0000  0.0000  0.0000 )
                  Velocity quadrupole around ( 0.0000  0.0000  0.0000 )
                  Atomic mean-field integrals
                  Two-Electron Repulsion integrals

                   Integrals are discarded if absolute value <: 0.10E-13
                   Integral cutoff threshold is set to       <: 0.10E-15

++    Symmetry information:
      ---------------------

                    Character Table for C1 

                             E  
                    a        1  x, y, xy, Rz, z, xz, Ry, yz, Rx, I
--


++    Basis set information:
      ----------------------


      Basis set label: W.ANO-RCC.ROOS.24S21P15D11F4G2H.11S10P9D8F4G2H......

      Electronic valence basis set:
      ------------------
      Associated Effective Charge  74.000000 au
      Associated Actual Charge     74.000000 au
      Nuclear Model: Point charge

      Shell  nPrim  nBasis  Cartesian Spherical Contaminant
         s      24      11        X                  
         p      21      10        X                  
         d      15       9                 X         
         f      11       8                 X         
         g       4       4                 X         
         h       2       2                 X         
--


++    Molecular structure info:
      -------------------------

                    ************************************************ 
                    **** Cartesian Coordinates / Bohr, Angstrom **** 
                    ************************************************ 

     Center  Label                x              y              z                     x              y              z
        1      W                0.000000       0.000000       0.000000              0.000000       0.000000       0.000000
--


++    Operator info:
      --------------


  Net charge from external field:   -4.0000000000000000     
--


            Nuclear Potential Energy              0.00000000 au

                    Nuclear-External Field Potential Energy    -939.68254181 au
                    External Field Potential Energy              11.84778037 au 


            Total Nuclear Potential Energy           -939.68254181 au


      Basis set specifications :
      Symmetry species         a  
      Basis functions          200

 Sorry, Molden does not know how to handle
 functions with angular momentum larger than g
Note: The following floating-point exceptions are signalling: IEEE_UNDERFLOW_FLAG IEEE_DENORMAL
--- Stop Module: seward at Thu Jan  9 20:44:52 2025 /rc=_RC_ALL_IS_WELL_ ---
*** files: tungsten_so_cf.GssOrb xmldump
    saved to directory /home4/s4752295/Internship/Initial_simulations/Point_charge_model/1_electron/active_space_9_non_rel/W/varying_bond_length
--- Module seward spent 19 seconds ---

*** symbolic link created: INPORB -> tungsten_so_cf.GssOrb
--- Start Module: scf at Thu Jan  9 20:44:52 2025 ---

()()()()()()()()()()()()()()()()()()()()()()()()()()()()()()()()()()()()()()()()()()()()()()()()()()

                                                &SCF

                                   only a single process is used
                       available to each process: 4.1 GB of memory, 1 thread?
                                            pid: 2813025
()()()()()()()()()()()()()()()()()()()()()()()()()()()()()()()()()()()()()()()()()()()()()()()()()()

++    Input section:
      --------------

      Header of the integral files:
      
       Integrals generated by seward 4.2.0  , Thu Jan  9 20:44:33 2025


      Cartesian coordinates in Angstrom:
      -----------------------------------------------------
      No.  Label        X            Y            Z        
      -----------------------------------------------------
       1   W          0.00000000   0.00000000   0.00000000
      -----------------------------------------------------
      Nuclear repulsion energy = -939.68254181
--

++    Orbital specifications:
      -----------------------

      Symmetry species               1
                                     a
      Frozen orbitals                0
      Occupied orbitals             34
      Secondary orbitals           166
      Deleted orbitals               0
      Total number of orbitals     200
      Number of basis functions    200
--

      Molecular charge                           6.000

++    Optimization specifications:
      ----------------------------

      SCF Algorithm: Conventional
      Minimized density differences are used
      Number of density matrices in core                5
      Maximum number of NDDO SCF iterations            50
      Maximum number of HF SCF iterations             100
      Threshold for SCF energy change            0.10E-08
      Threshold for density matrix               0.10E-03
      Threshold for Fock matrix                  0.15E-03
      Threshold for linear dependence            0.10E-08
      Threshold at which DIIS is turned on       0.15E+00
      Threshold at which QNR/C2DIIS is turned on 0.75E-01
      Threshold for Norm(delta) (QNR/C2DIIS)     0.20E-04
      DIIS extrapolation of the SCF procedure
      All orbitals punched on: SCFORB
--

      Detected guessorb starting orbitals                                             


++ Convergence information
                                   SCF        iterations: Energy and convergence statistics

Iter     Tot. SCF        One-elec.       Two-elec.     Energy      Max Dij or  Max Fij      DNorm      TNorm      AccCon     Time
         Energy          Energy          Energy        Change      Delta Norm                                                in Sec.

 The total and one-electron energies are shifted by a value of     16000. a.u.

   1  -410.453544805 -5264.090591442  5793.319588443   0.00E+00    0.43E+00*   0.17E+01*    0.12E+02   0.15E+04   None         1.
   2  -319.036867901 -3710.915429449  4331.561103354   0.91E+02*   0.42E+00*   0.57E+00*    0.84E+01   0.13E+04   EDIIS        1.
   3  -419.429397279 -4719.068002159  5239.321146687  -0.10E+03*   0.20E+00*   0.60E+00*    0.49E+01   0.15E+04   EDIIS        1.
   4  -422.923686686 -4989.527891017  5506.286746137  -0.35E+01*   0.19E+00*   0.27E+00*    0.18E+01   0.15E+04   EDIIS        1.
   5  -423.041892656 -4845.147009461  5361.787658611  -0.12E+00*   0.59E-01*   0.13E+00*    0.62E+00   0.15E+04   EDIIS        1.
   6  -423.511411206 -4921.014356434  5437.185487034  -0.47E+00*   0.69E-01*   0.27E-01*    0.22E+00   0.15E+04   EDIIS        1.
   7  -423.509622717 -4904.865036673  5421.037955762   0.18E-02*   0.57E-01*   0.20E-01*    0.72E-01   0.15E+04   EDIIS        1.
   8  -423.519379634 -4915.302490459  5431.465652631  -0.98E-02*   0.50E-01*   0.73E-02*    0.21E-01   0.15E+04   c2DIIS       1.
   9  -423.520722333 -4914.297822258  5430.459641731  -0.13E-02*   0.26E-01*   0.69E-02*    0.19E-01   0.15E+04   QNRc2DIIS    1.
  10  -423.521625509 -4913.893545960  5430.054462257  -0.90E-03*   0.20E+00*   0.62E-02*    0.60E-02   0.15E+04   QNRc2DIIS    1.
  11  -423.524184110 -4913.887683921  5430.046041617  -0.26E-02*   0.14E-01*   0.90E-02*    0.13E+00   0.15E+04   QNRc2DIIS    1.
  12  -423.524885870 -4911.299297889  5427.456953825  -0.70E-03*   0.15E-01*   0.59E-02*    0.20E-01   0.15E+04   QNRc2DIIS    1.
  13  -423.525386250 -4912.319415618  5428.476571174  -0.50E-03*   0.78E-01*   0.28E-02*    0.63E-02   0.15E+04   QNRc2DIIS    1.
  14  -423.525893539 -4912.160402641  5428.317050908  -0.51E-03*   0.86E-02*   0.14E-02*    0.24E-01   0.15E+04   QNRc2DIIS    1.
  15  -423.525932308 -4912.375720633  5428.532330131  -0.39E-04*   0.14E-01*   0.11E-02*    0.94E-02   0.15E+04   QNRc2DIIS    1.
  16  -423.525989728 -4912.223418444  5428.379970523  -0.57E-04*   0.99E-02*   0.49E-03*    0.97E-02   0.15E+04   QNRc2DIIS    1.
  17  -423.526006483 -4912.127902766  5428.284438089  -0.17E-04*   0.38E-02*   0.35E-03*    0.66E-02   0.15E+04   QNRc2DIIS    1.
  18  -423.526013083 -4912.124801283  5428.281330006  -0.66E-05*   0.98E-02*   0.36E-03*    0.21E-02   0.15E+04   QNRc2DIIS    1.
  19  -423.526028571 -4912.181563954  5428.338077190  -0.15E-04*   0.28E-02*   0.29E-03*    0.44E-02   0.15E+04   QNRc2DIIS    1.
  20  -423.526030974 -4912.193913737  5428.350424569  -0.24E-05*   0.42E-02*   0.22E-03*    0.16E-02   0.15E+04   QNRc2DIIS    1.
  21  -423.526033609 -4912.207956000  5428.364464197  -0.26E-05*   0.13E-02*   0.10E-03     0.19E-02   0.15E+04   QNRc2DIIS    1.
  22  -423.526034307 -4912.213668717  5428.370176216  -0.70E-06*   0.11E-02*   0.77E-04     0.86E-03   0.15E+04   QNRc2DIIS    1.
  23  -423.526034580 -4912.217104055  5428.373611282  -0.27E-06*   0.36E-03*   0.56E-04     0.65E-03   0.15E+04   QNRc2DIIS    1.
  24  -423.526034709 -4912.221876703  5428.378383800  -0.13E-06*   0.15E-03*   0.24E-04     0.37E-03   0.15E+04   QNRc2DIIS    1.
  25  -423.526034728 -4912.221744708  5428.378251786  -0.19E-07*   0.18E-03*   0.17E-04     0.12E-03   0.15E+04   QNRc2DIIS    1.
  26  -423.526034743 -4912.221927463  5428.378434526  -0.15E-07*   0.13E-03*   0.10E-04     0.11E-03   0.15E+04   QNRc2DIIS    1.
  27  -423.526034748 -4912.222023302  5428.378530360  -0.56E-08*   0.62E-04*   0.51E-05     0.16E-03   0.15E+04   QNRc2DIIS    1.
  28  -423.526034750 -4912.222046779  5428.378553836  -0.14E-08*   0.83E-04*   0.55E-05     0.33E-02   0.15E+04   QNRc2DIIS    1.
  29  -423.526034751 -4912.221899939  5428.378406994  -0.17E-08*   0.18E-04    0.38E-05     0.11E-01   0.15E+04   QNRc2DIIS    1.
  30  -423.526034752 -4912.221830982  5428.378338037  -0.24E-09    0.45E-05    0.21E-05     0.78E-02   0.15E+04   QNRc2DIIS    1.

       Convergence after 30 Macro Iterations
--

 *****************************************************************************************************************************
 *                                                                                                                           *
 *                                             SCF/KS-DFT Program, Final results                                             *
 *                                                                                                                           *
 *                                                                                                                           *
 *                                                                                                                           *
 *                                                       Final Results                                                       *
 *                                                                                                                           *
 *****************************************************************************************************************************

::    Total SCF energy                             -16423.5260347516
      One-electron energy                          -20912.2218309825
      Two-electron energy                            5428.3783380371
      Nuclear repulsion energy                       -939.6825418062
      Kinetic energy (interpolated)                 22385.4593401971
      Virial theorem                                    0.7336693782
      Total spin, S(S+1)                                0.0000000000
      Total spin, S                                     0.0000000000
      Max non-diagonal density matrix element           0.0000068927
      Max non-diagonal Fock matrix element              0.0000008640


      All orbitals with orbital energies smaller than  E(LUMO)+0.5 are printed

++    Molecular orbitals:
      -------------------

      Title: SCF orbitals

      Molecular orbitals for symmetry species 1: a  

          Some orbital energies have been scaled by powers of 10, the power is written right after the orbital index


          Orbital            1 (1)     2         3         4         5         6         7         8         9        10    
          Energy         -256.2698 -446.8462 -392.2268 -392.2243 -392.1777 -103.7356  -87.2923  -87.2850  -86.8549  -67.6494
          Occ. No.          2.0000    2.0000    2.0000    2.0000    2.0000    2.0000    2.0000    2.0000    2.0000    2.0000

        1 W      1s         1.0000    0.0000   -0.0000    0.0000   -0.0000   -0.0000    0.0000   -0.0000    0.0000    0.0000
        2 W      2s        -0.0000    1.0000   -0.0000    0.0001   -0.0024    0.0003   -0.0000    0.0000   -0.0002   -0.0000
        3 W      3s         0.0000   -0.0003    0.0000   -0.0000    0.0001    0.9996   -0.0000    0.0003   -0.0235    0.0000
        4 W      4s        -0.0000    0.0001   -0.0000    0.0000   -0.0000   -0.0012    0.0000   -0.0000    0.0010    0.0000
        5 W      5s         0.0000   -0.0000    0.0000   -0.0000    0.0000    0.0006   -0.0000    0.0000   -0.0004   -0.0000
        6 W      6s        -0.0000    0.0000    0.0000    0.0000   -0.0000   -0.0002   -0.0000   -0.0000    0.0001    0.0000
        7 W      7s         0.0000   -0.0000   -0.0000   -0.0000    0.0000    0.0002    0.0000    0.0000   -0.0001   -0.0000
        8 W      8s        -0.0000    0.0000   -0.0000    0.0000   -0.0000   -0.0005   -0.0000   -0.0000    0.0003    0.0000
        9 W      9s         0.0000   -0.0000    0.0000   -0.0000    0.0000    0.0007    0.0000    0.0000   -0.0004   -0.0000
       10 W     10s        -0.0000    0.0000   -0.0000    0.0000   -0.0000   -0.0009   -0.0000   -0.0000    0.0004    0.0000
       11 W     11s         0.0000   -0.0001    0.0000   -0.0000    0.0000    0.0016    0.0000    0.0000   -0.0006   -0.0000
       12 W      2px        0.0000    0.0000    0.0000    0.9995    0.0319   -0.0000   -0.0000    0.0003    0.0000    0.0000
       13 W      3px       -0.0000    0.0000   -0.0000   -0.0003   -0.0000   -0.0000   -0.0000    0.9992    0.0105   -0.0000
       14 W      4px        0.0000   -0.0000    0.0000    0.0001    0.0000    0.0000    0.0000   -0.0006   -0.0000    0.0000
       15 W      5px       -0.0000    0.0000   -0.0000   -0.0000   -0.0000   -0.0000   -0.0000    0.0004   -0.0000   -0.0000
       16 W      6px        0.0000   -0.0000    0.0000    0.0000    0.0000    0.0000    0.0000   -0.0002   -0.0000    0.0000
       17 W      7px       -0.0000    0.0000   -0.0000   -0.0000   -0.0000   -0.0000   -0.0000    0.0006    0.0000   -0.0000
       18 W      8px        0.0000   -0.0000    0.0000    0.0000    0.0000    0.0000    0.0000   -0.0007   -0.0000    0.0000
       19 W      9px       -0.0000    0.0000   -0.0000   -0.0000   -0.0000   -0.0000   -0.0000    0.0009    0.0000   -0.0000
       20 W     10px        0.0000   -0.0000    0.0000    0.0000    0.0000    0.0000    0.0000   -0.0010   -0.0000    0.0000
       21 W     11px       -0.0000    0.0000   -0.0000   -0.0001   -0.0000    0.0000   -0.0000    0.0014    0.0000   -0.0000
       22 W      2py        0.0000    0.0000    1.0000   -0.0000   -0.0000   -0.0000    0.0003    0.0000   -0.0000    0.0001
       23 W      3py       -0.0000    0.0000   -0.0003    0.0000    0.0000    0.0000    0.9993    0.0000   -0.0000    0.0007
       24 W      4py        0.0000   -0.0000    0.0001   -0.0000   -0.0000    0.0000   -0.0006   -0.0000    0.0000    0.0005
       25 W      5py       -0.0000    0.0000   -0.0000    0.0000   -0.0000   -0.0000    0.0004    0.0000    0.0000   -0.0002
       26 W      6py       -0.0000    0.0000    0.0000   -0.0000   -0.0000   -0.0000   -0.0002   -0.0000    0.0000    0.0001
       27 W      7py        0.0000   -0.0000   -0.0000    0.0000    0.0000    0.0000    0.0006    0.0000   -0.0000   -0.0002
       28 W      8py       -0.0000    0.0000    0.0000   -0.0000   -0.0000   -0.0000   -0.0007   -0.0000    0.0000    0.0002
       29 W      9py        0.0000   -0.0000   -0.0000    0.0000    0.0000    0.0000    0.0009    0.0000   -0.0000   -0.0002
       30 W     10py       -0.0000    0.0000    0.0000   -0.0000   -0.0000   -0.0000   -0.0010   -0.0000    0.0000    0.0002
       31 W     11py        0.0000   -0.0000   -0.0001    0.0000    0.0000    0.0000    0.0014    0.0000   -0.0000   -0.0002
       32 W      2pz        0.0000    0.0024    0.0000   -0.0319    0.9995   -0.0001    0.0000   -0.0000    0.0005    0.0000
       33 W      3pz       -0.0000    0.0002   -0.0000    0.0000   -0.0004    0.0233    0.0000   -0.0105    0.9995    0.0000
       34 W      4pz        0.0000   -0.0001    0.0000   -0.0000    0.0001    0.0005   -0.0000    0.0000   -0.0021   -0.0000
       35 W      5pz       -0.0000    0.0000   -0.0000    0.0000   -0.0000   -0.0002    0.0000   -0.0000    0.0009    0.0000
       36 W      6pz        0.0000   -0.0000    0.0000   -0.0000    0.0000    0.0001   -0.0000    0.0000   -0.0004    0.0000
       37 W      7pz       -0.0000    0.0000   -0.0000    0.0000   -0.0001   -0.0003    0.0000   -0.0000    0.0013   -0.0000
       38 W      8pz        0.0000   -0.0000    0.0000   -0.0000    0.0001    0.0003   -0.0000    0.0000   -0.0014    0.0000
       39 W      9pz       -0.0000    0.0000   -0.0000    0.0000   -0.0001   -0.0003    0.0000   -0.0000    0.0016   -0.0000
       40 W     10pz        0.0000   -0.0000    0.0000   -0.0000    0.0001    0.0003   -0.0000    0.0000   -0.0018    0.0000
       41 W     11pz       -0.0000    0.0000   -0.0000    0.0000   -0.0001   -0.0005    0.0000   -0.0000    0.0024   -0.0000
       42 W      3d2-      -0.0000    0.0000    0.0001    0.0000   -0.0000   -0.0000    0.0190    0.0000   -0.0000    0.8474
       43 W      4d2-       0.0000   -0.0000   -0.0000   -0.0000    0.0000    0.0000    0.0022    0.0000   -0.0000    0.0004
       44 W      5d2-      -0.0000    0.0000    0.0000   -0.0000   -0.0000   -0.0000   -0.0005   -0.0000    0.0000    0.0000
       45 W      6d2-       0.0000   -0.0000   -0.0000    0.0000    0.0000    0.0000    0.0007    0.0000   -0.0000   -0.0000
       46 W      7d2-      -0.0000    0.0000    0.0000   -0.0000   -0.0000   -0.0000   -0.0009   -0.0000    0.0000    0.0001
       47 W      8d2-       0.0000   -0.0000   -0.0000    0.0000    0.0000    0.0000    0.0011    0.0000   -0.0000   -0.0002
       48 W      9d2-      -0.0000    0.0000    0.0000   -0.0000   -0.0000   -0.0000   -0.0012   -0.0000    0.0000    0.0003
       49 W     10d2-       0.0000   -0.0000   -0.0000    0.0000    0.0000    0.0000    0.0015    0.0000   -0.0000   -0.0006
       50 W     11d2-      -0.0000    0.0000   -0.0000   -0.0000    0.0000   -0.0000   -0.0011   -0.0000    0.0000    0.0007
       51 W      3d1-       0.0000    0.0000    0.0004   -0.0000   -0.0000    0.0000    0.0316    0.0000    0.0000   -0.5310
       52 W      4d1-      -0.0000   -0.0000   -0.0001    0.0000   -0.0000    0.0000    0.0029    0.0000    0.0000   -0.0008
       53 W      5d1-       0.0000    0.0000    0.0000   -0.0000   -0.0000   -0.0000   -0.0007   -0.0000    0.0000    0.0001
       54 W      6d1-      -0.0000   -0.0000   -0.0000    0.0000    0.0000    0.0000    0.0009    0.0000   -0.0000   -0.0001
       55 W      7d1-       0.0000    0.0000    0.0000   -0.0000   -0.0000   -0.0000   -0.0012   -0.0000    0.0000    0.0001
       56 W      8d1-      -0.0000   -0.0000   -0.0000    0.0000    0.0000    0.0000    0.0015    0.0000   -0.0000   -0.0001
       57 W      9d1-       0.0000    0.0000    0.0001   -0.0000   -0.0000   -0.0000   -0.0017   -0.0000    0.0000    0.0000
       58 W     10d1-      -0.0000   -0.0000   -0.0001    0.0000    0.0000    0.0000    0.0020    0.0000   -0.0000    0.0001
       59 W     11d1-       0.0000    0.0000    0.0001   -0.0000   -0.0000   -0.0000   -0.0016   -0.0000    0.0000   -0.0003
       60 W      3d0       -0.0000   -0.0001   -0.0000   -0.0000    0.0001   -0.0073   -0.0000    0.0002   -0.0160   -0.0000
       61 W      4d0        0.0000    0.0000    0.0000    0.0000   -0.0000   -0.0010   -0.0000    0.0000   -0.0027   -0.0000
       62 W      5d0       -0.0000   -0.0000    0.0000   -0.0000    0.0000    0.0002    0.0000   -0.0000    0.0006    0.0000
       63 W      6d0        0.0000    0.0000   -0.0000    0.0000   -0.0000   -0.0003   -0.0000    0.0000   -0.0009   -0.0000
       64 W      7d0       -0.0000   -0.0000    0.0000   -0.0000    0.0000    0.0004    0.0000   -0.0000    0.0012    0.0000
       65 W      8d0        0.0000    0.0000   -0.0000    0.0000   -0.0000   -0.0006   -0.0000    0.0000   -0.0014   -0.0000
       66 W      9d0       -0.0000   -0.0000    0.0000   -0.0000    0.0000    0.0006    0.0000   -0.0000    0.0015    0.0000
       67 W     10d0        0.0000    0.0000   -0.0000    0.0000   -0.0001   -0.0008   -0.0000    0.0000   -0.0018   -0.0000
       68 W     11d0       -0.0000   -0.0000    0.0000   -0.0000    0.0001    0.0007    0.0000   -0.0000    0.0012    0.0000
       69 W      3d1+      -0.0000   -0.0000    0.0000    0.0004    0.0000   -0.0001   -0.0000    0.0316    0.0004   -0.0000
       70 W      4d1+       0.0000    0.0000   -0.0000   -0.0001   -0.0000   -0.0000   -0.0000    0.0029    0.0000   -0.0000
       71 W      5d1+      -0.0000   -0.0000    0.0000    0.0000    0.0000    0.0000    0.0000   -0.0007   -0.0000    0.0000
       72 W      6d1+       0.0000    0.0000   -0.0000   -0.0000   -0.0000   -0.0000   -0.0000    0.0009    0.0000   -0.0000
       73 W      7d1+      -0.0000   -0.0000    0.0000    0.0000    0.0000    0.0000    0.0000   -0.0012   -0.0000    0.0000
       74 W      8d1+       0.0000    0.0000   -0.0000   -0.0000   -0.0000   -0.0000   -0.0000    0.0015    0.0000   -0.0000
       75 W      9d1+      -0.0000   -0.0000    0.0000    0.0001    0.0000    0.0000    0.0000   -0.0017   -0.0000   -0.0000
       76 W     10d1+       0.0000    0.0000   -0.0000   -0.0001   -0.0000   -0.0000   -0.0000    0.0020    0.0000    0.0000
       77 W     11d1+      -0.0000   -0.0000    0.0000    0.0001    0.0000    0.0000    0.0000   -0.0016   -0.0000   -0.0000
       78 W      3d2+      -0.0000   -0.0000   -0.0000   -0.0001   -0.0000   -0.0001    0.0000   -0.0190   -0.0002   -0.0000
       79 W      4d2+       0.0000    0.0000    0.0000    0.0000    0.0000   -0.0000    0.0000   -0.0022   -0.0000   -0.0000
       80 W      5d2+      -0.0000   -0.0000   -0.0000   -0.0000   -0.0000    0.0000   -0.0000    0.0005    0.0000   -0.0000
       81 W      6d2+       0.0000    0.0000   -0.0000    0.0000    0.0000   -0.0000    0.0000   -0.0007   -0.0000    0.0000
       82 W      7d2+      -0.0000   -0.0000    0.0000   -0.0000   -0.0000    0.0000   -0.0000    0.0009    0.0000   -0.0000
       83 W      8d2+       0.0000    0.0000   -0.0000    0.0000    0.0000   -0.0000    0.0000   -0.0011   -0.0000    0.0000
       84 W      9d2+      -0.0000   -0.0000    0.0000   -0.0000   -0.0000    0.0000   -0.0000    0.0012    0.0000   -0.0000
       85 W     10d2+       0.0000    0.0000   -0.0000    0.0000    0.0000   -0.0000    0.0000   -0.0015   -0.0000    0.0000
       86 W     11d2+      -0.0000   -0.0000    0.0000    0.0000   -0.0000    0.0000   -0.0000    0.0011    0.0000   -0.0000
       87 W      4f3-      -0.0000   -0.0000   -0.0000    0.0000    0.0000   -0.0000   -0.0000   -0.0000    0.0000    0.0000
       88 W      5f3-       0.0000    0.0000    0.0000   -0.0000   -0.0000    0.0000    0.0000    0.0000    0.0000   -0.0000
       89 W      6f3-      -0.0000   -0.0000   -0.0000    0.0000    0.0000   -0.0000   -0.0000   -0.0000    0.0000    0.0000
       90 W      7f3-       0.0000    0.0000    0.0000    0.0000    0.0000    0.0000    0.0000   -0.0000   -0.0000   -0.0000
       91 W      8f3-      -0.0000   -0.0000   -0.0000   -0.0000   -0.0000   -0.0000   -0.0000    0.0000    0.0000    0.0000
       92 W      9f3-       0.0000    0.0000    0.0000    0.0000    0.0000    0.0000    0.0000   -0.0000   -0.0000   -0.0000
       93 W     10f3-      -0.0000   -0.0000   -0.0000   -0.0000   -0.0000   -0.0000   -0.0000    0.0000    0.0000    0.0000
       94 W     11f3-       0.0000    0.0000    0.0000    0.0000    0.0000   -0.0000    0.0000   -0.0000   -0.0000   -0.0000
       95 W      4f2-      -0.0000    0.0000   -0.0000    0.0000   -0.0000   -0.0000   -0.0028   -0.0000    0.0000    0.0031
       96 W      5f2-       0.0000   -0.0000    0.0000   -0.0000    0.0000    0.0000    0.0019    0.0000   -0.0000   -0.0021
       97 W      6f2-       0.0000    0.0000   -0.0000    0.0000    0.0000   -0.0000   -0.0018   -0.0000    0.0000    0.0020
       98 W      7f2-      -0.0000   -0.0000    0.0000   -0.0000   -0.0000    0.0000    0.0015    0.0000   -0.0000   -0.0017
       99 W      8f2-       0.0000    0.0000   -0.0000    0.0000    0.0000   -0.0000   -0.0012   -0.0000    0.0000    0.0014
      100 W      9f2-      -0.0000   -0.0000    0.0000   -0.0000   -0.0000    0.0000    0.0007    0.0000   -0.0000   -0.0010
      101 W     10f2-       0.0000    0.0000   -0.0000    0.0000    0.0000   -0.0000   -0.0004   -0.0000   -0.0000    0.0007
      102 W     11f2-      -0.0000   -0.0000    0.0000   -0.0000   -0.0000    0.0000   -0.0005   -0.0000    0.0000   -0.0002
      103 W      4f1-      -0.0000   -0.0000   -0.0000    0.0000    0.0000   -0.0000   -0.0013   -0.0000    0.0000   -0.0012
      104 W      5f1-       0.0000    0.0000    0.0000   -0.0000   -0.0000    0.0000    0.0009    0.0000   -0.0000    0.0008
      105 W      6f1-      -0.0000   -0.0000   -0.0000    0.0000    0.0000   -0.0000   -0.0009   -0.0000    0.0000   -0.0008
      106 W      7f1-       0.0000    0.0000    0.0000   -0.0000   -0.0000    0.0000    0.0007    0.0000   -0.0000    0.0007
      107 W      8f1-      -0.0000   -0.0000   -0.0000    0.0000    0.0000   -0.0000   -0.0006   -0.0000    0.0000   -0.0006
      108 W      9f1-       0.0000    0.0000    0.0000   -0.0000   -0.0000    0.0000    0.0004    0.0000   -0.0000    0.0004
      109 W     10f1-      -0.0000   -0.0000   -0.0000    0.0000    0.0000   -0.0000   -0.0003   -0.0000    0.0000   -0.0004
      110 W     11f1-       0.0000    0.0000    0.0000   -0.0000   -0.0000   -0.0000   -0.0000   -0.0000   -0.0000    0.0002
      111 W      4f0       -0.0000   -0.0001   -0.0000    0.0000   -0.0000   -0.0051   -0.0000    0.0000   -0.0019    0.0000
      112 W      5f0        0.0000    0.0001    0.0000   -0.0000    0.0000    0.0036    0.0000   -0.0000    0.0013    0.0000
      113 W      6f0       -0.0000   -0.0001   -0.0000    0.0000   -0.0000   -0.0034   -0.0000    0.0000   -0.0012   -0.0000
      114 W      7f0        0.0000    0.0001    0.0000   -0.0000    0.0000    0.0030    0.0000   -0.0000    0.0010    0.0000
      115 W      8f0       -0.0000   -0.0001   -0.0000    0.0000   -0.0000   -0.0025   -0.0000    0.0000   -0.0009   -0.0000
      116 W      9f0        0.0000    0.0001    0.0000   -0.0000    0.0000    0.0017    0.0000   -0.0000    0.0006    0.0000
      117 W     10f0       -0.0000   -0.0001   -0.0000    0.0000   -0.0000   -0.0011   -0.0000    0.0000   -0.0004   -0.0000
      118 W     11f0        0.0000    0.0001    0.0000   -0.0000    0.0000   -0.0005    0.0000   -0.0000   -0.0001    0.0000
      119 W      4f1+       0.0000   -0.0000   -0.0000   -0.0000   -0.0000   -0.0000    0.0000   -0.0012   -0.0000   -0.0000
      120 W      5f1+      -0.0000    0.0000    0.0000    0.0000    0.0000    0.0000   -0.0000    0.0009    0.0000    0.0000
      121 W      6f1+       0.0000   -0.0000   -0.0000   -0.0000   -0.0000   -0.0000    0.0000   -0.0008   -0.0000   -0.0000
      122 W      7f1+       0.0000    0.0000    0.0000    0.0000    0.0000    0.0000   -0.0000    0.0007    0.0000    0.0000
      123 W      8f1+      -0.0000    0.0000   -0.0000   -0.0000   -0.0000   -0.0000    0.0000   -0.0006   -0.0000   -0.0000
      124 W      9f1+       0.0000   -0.0000    0.0000    0.0000    0.0000    0.0000   -0.0000    0.0004    0.0000    0.0000
      125 W     10f1+      -0.0000    0.0000   -0.0000   -0.0000   -0.0000   -0.0000    0.0000   -0.0003   -0.0000   -0.0000
      126 W     11f1+       0.0000   -0.0000    0.0000    0.0000    0.0000    0.0000    0.0000   -0.0000    0.0000    0.0000
      127 W      4f2+      -0.0000   -0.0000    0.0000    0.0000    0.0000   -0.0000   -0.0000    0.0027    0.0000   -0.0000
      128 W      5f2+       0.0000    0.0000   -0.0000   -0.0000    0.0000    0.0000    0.0000   -0.0019   -0.0000    0.0000
      129 W      6f2+      -0.0000   -0.0000    0.0000    0.0000    0.0000   -0.0000   -0.0000    0.0017    0.0000   -0.0000
      130 W      7f2+       0.0000    0.0000   -0.0000   -0.0000   -0.0000    0.0000    0.0000   -0.0015   -0.0000    0.0000
      131 W      8f2+      -0.0000   -0.0000    0.0000    0.0000    0.0000   -0.0000   -0.0000    0.0012    0.0000   -0.0000
      132 W      9f2+       0.0000    0.0000   -0.0000   -0.0000   -0.0000    0.0000    0.0000   -0.0007    0.0000    0.0000
      133 W     10f2+      -0.0000   -0.0000    0.0000    0.0000    0.0000   -0.0000   -0.0000    0.0003   -0.0000   -0.0000
      134 W     11f2+       0.0000    0.0000    0.0000   -0.0000   -0.0000   -0.0000   -0.0000    0.0005    0.0000    0.0000
      135 W      4f3+      -0.0000   -0.0000    0.0000   -0.0000    0.0000   -0.0033    0.0000   -0.0001    0.0025   -0.0000
      136 W      5f3+       0.0000    0.0000   -0.0000    0.0000   -0.0000    0.0024   -0.0000    0.0000   -0.0017   -0.0000
      137 W      6f3+      -0.0000   -0.0000    0.0000   -0.0000    0.0000   -0.0023    0.0000   -0.0000    0.0016    0.0000
      138 W      7f3+       0.0000    0.0000   -0.0000    0.0000   -0.0000    0.0020   -0.0000    0.0000   -0.0013   -0.0000
      139 W      8f3+      -0.0000   -0.0000   -0.0000   -0.0000    0.0000   -0.0016    0.0000   -0.0000    0.0011    0.0000
      140 W      9f3+       0.0000    0.0000    0.0000    0.0000   -0.0000    0.0011   -0.0000    0.0000   -0.0006   -0.0000
      141 W     10f3+      -0.0000   -0.0001   -0.0000   -0.0000    0.0000   -0.0007    0.0000   -0.0000    0.0003    0.0000
      142 W     11f3+       0.0000    0.0001    0.0000    0.0000   -0.0000   -0.0003    0.0000   -0.0000    0.0004   -0.0000
      143 W      5g4-      -0.0000    0.0000   -0.0000   -0.0000    0.0000    0.0000   -0.0005   -0.0000    0.0000   -0.0000
      144 W      6g4-       0.0000   -0.0000    0.0000   -0.0000   -0.0000    0.0000    0.0005    0.0000   -0.0000    0.0000
      145 W      7g4-      -0.0000    0.0000   -0.0000    0.0000    0.0000   -0.0000   -0.0004   -0.0000    0.0000   -0.0000
      146 W      8g4-       0.0000   -0.0000    0.0000   -0.0000   -0.0000    0.0000    0.0003    0.0000   -0.0000    0.0000
      147 W      5g3-      -0.0000    0.0000    0.0000    0.0000   -0.0000    0.0000   -0.0000    0.0000    0.0000   -0.0000
      148 W      6g3-       0.0000   -0.0000   -0.0000   -0.0000    0.0000    0.0000    0.0000    0.0000   -0.0000    0.0000
      149 W      7g3-      -0.0000    0.0000    0.0000    0.0000   -0.0000   -0.0000   -0.0000   -0.0000    0.0000   -0.0000
      150 W      8g3-       0.0000   -0.0000   -0.0000   -0.0000    0.0000    0.0000    0.0000    0.0000   -0.0000    0.0000
      151 W      5g2-       0.0000   -0.0000   -0.0000   -0.0000   -0.0000   -0.0000    0.0001    0.0000    0.0000   -0.0001
      152 W      6g2-      -0.0000    0.0000    0.0000    0.0000    0.0000   -0.0000   -0.0001   -0.0000   -0.0000    0.0001
      153 W      7g2-       0.0000   -0.0000   -0.0000   -0.0000   -0.0000    0.0000    0.0001    0.0000    0.0000   -0.0001
      154 W      8g2-      -0.0000    0.0000    0.0000    0.0000    0.0000   -0.0000   -0.0001   -0.0000   -0.0000    0.0000
      155 W      5g1-       0.0000   -0.0000   -0.0000   -0.0000    0.0000   -0.0000   -0.0006   -0.0000    0.0000    0.0003
      156 W      6g1-      -0.0000    0.0000    0.0000    0.0000   -0.0000   -0.0000    0.0006    0.0000   -0.0000   -0.0002
      157 W      7g1-       0.0000   -0.0000   -0.0000    0.0000    0.0000    0.0000   -0.0005   -0.0000    0.0000    0.0002
      158 W      8g1-      -0.0000    0.0000    0.0000   -0.0000   -0.0000   -0.0000    0.0004    0.0000   -0.0000   -0.0002
      159 W      5g0       -0.0000   -0.0000    0.0000    0.0000   -0.0000   -0.0001   -0.0000    0.0000   -0.0010   -0.0000
      160 W      6g0        0.0000    0.0000   -0.0000   -0.0000    0.0000    0.0001    0.0000   -0.0000    0.0010    0.0000
      161 W      7g0       -0.0000   -0.0000    0.0000    0.0000   -0.0000   -0.0000   -0.0000    0.0000   -0.0009   -0.0000
      162 W      8g0        0.0000    0.0000    0.0000   -0.0000    0.0000    0.0000    0.0000   -0.0000    0.0007    0.0000
      163 W      5g1+      -0.0000    0.0000   -0.0000   -0.0000    0.0000    0.0000    0.0000   -0.0006   -0.0000    0.0000
      164 W      6g1+       0.0000   -0.0000    0.0000    0.0000   -0.0000    0.0000   -0.0000    0.0006    0.0000   -0.0000
      165 W      7g1+      -0.0000    0.0000   -0.0000   -0.0000    0.0000   -0.0000    0.0000   -0.0005   -0.0000    0.0000
      166 W      8g1+       0.0000   -0.0000    0.0000    0.0000    0.0000    0.0000   -0.0000    0.0004    0.0000   -0.0000
      167 W      5g2+       0.0000   -0.0000    0.0000    0.0000    0.0000   -0.0000    0.0000   -0.0001   -0.0000    0.0000
      168 W      6g2+      -0.0000    0.0000   -0.0000   -0.0000    0.0000   -0.0000   -0.0000    0.0001    0.0000   -0.0000
      169 W      7g2+       0.0000   -0.0000    0.0000    0.0000   -0.0000    0.0000    0.0000   -0.0001   -0.0000    0.0000
      170 W      8g2+      -0.0000    0.0000   -0.0000   -0.0000    0.0000   -0.0000   -0.0000    0.0001    0.0000   -0.0000
      171 W      5g3+       0.0000    0.0000   -0.0000    0.0000   -0.0000    0.0005   -0.0000    0.0000   -0.0006   -0.0000
      172 W      6g3+      -0.0000   -0.0000    0.0000   -0.0000    0.0000   -0.0005    0.0000   -0.0000    0.0006    0.0000
      173 W      7g3+       0.0000    0.0000   -0.0000    0.0000   -0.0000    0.0005   -0.0000    0.0000   -0.0006   -0.0000
      174 W      8g3+      -0.0000   -0.0000    0.0000   -0.0000    0.0000   -0.0004    0.0000   -0.0000    0.0004    0.0000
      175 W      5g4+       0.0000   -0.0000   -0.0000   -0.0000    0.0000   -0.0000    0.0000   -0.0005   -0.0000    0.0000
      176 W      6g4+      -0.0000    0.0000    0.0000    0.0000    0.0000   -0.0000   -0.0000    0.0005    0.0000    0.0000
      177 W      7g4+       0.0000   -0.0000   -0.0000   -0.0000   -0.0000    0.0000    0.0000   -0.0004   -0.0000   -0.0000
      178 W      8g4+      -0.0000    0.0000    0.0000    0.0000    0.0000   -0.0000   -0.0000    0.0003    0.0000    0.0000
      179 W      6h5-       0.0000   -0.0000    0.0000   -0.0000   -0.0000    0.0000    0.0000    0.0000   -0.0000   -0.0000
      180 W      7h5-       0.0000    0.0000   -0.0000   -0.0000    0.0000   -0.0000   -0.0000   -0.0000    0.0000    0.0001
      181 W      6h4-       0.0000   -0.0000    0.0000   -0.0000    0.0000    0.0000    0.0001    0.0000    0.0000    0.0000
      182 W      7h4-       0.0000    0.0000   -0.0000    0.0000   -0.0000   -0.0000   -0.0001   -0.0000   -0.0000   -0.0000
      183 W      6h3-      -0.0000   -0.0000   -0.0000    0.0000    0.0000    0.0000   -0.0000    0.0000    0.0000   -0.0000
      184 W      7h3-       0.0000    0.0000    0.0000   -0.0000    0.0000   -0.0000    0.0000   -0.0000   -0.0000    0.0000
      185 W      6h2-       0.0000   -0.0000    0.0000   -0.0000   -0.0000    0.0000    0.0000    0.0000   -0.0000   -0.0000
      186 W      7h2-       0.0000    0.0000   -0.0000    0.0000    0.0000   -0.0000   -0.0000   -0.0000    0.0000    0.0000
      187 W      6h1-       0.0000    0.0000    0.0000   -0.0000    0.0000   -0.0000    0.0000    0.0000    0.0000    0.0000
      188 W      7h1-      -0.0000   -0.0000   -0.0000    0.0000   -0.0000    0.0000   -0.0000   -0.0000   -0.0000   -0.0000
      189 W      6h0       -0.0000   -0.0000    0.0000    0.0000   -0.0000   -0.0000    0.0000    0.0000   -0.0001    0.0000
      190 W      7h0        0.0000    0.0000   -0.0000   -0.0000    0.0000    0.0000   -0.0000   -0.0000    0.0001    0.0000
      191 W      6h1+       0.0000    0.0000    0.0000    0.0000    0.0000   -0.0000   -0.0000    0.0000    0.0000    0.0000
      192 W      7h1+      -0.0000   -0.0000   -0.0000   -0.0000   -0.0000    0.0000    0.0000   -0.0000   -0.0000   -0.0000
      193 W      6h2+       0.0000    0.0000   -0.0000   -0.0000    0.0000   -0.0000    0.0000   -0.0000   -0.0000    0.0000
      194 W      7h2+      -0.0000   -0.0000   -0.0000    0.0000    0.0000    0.0000   -0.0000    0.0000    0.0000   -0.0000
      195 W      6h3+      -0.0000    0.0000    0.0000   -0.0000    0.0000   -0.0000    0.0000   -0.0000    0.0000   -0.0000
      196 W      7h3+      -0.0000    0.0000   -0.0000    0.0000   -0.0000    0.0000   -0.0000    0.0000   -0.0000    0.0000
      197 W      6h4+       0.0000    0.0000    0.0000    0.0000    0.0000   -0.0000   -0.0000    0.0001    0.0000    0.0000
      198 W      7h4+      -0.0000   -0.0000    0.0000   -0.0000   -0.0000    0.0000    0.0000   -0.0001   -0.0000   -0.0000
      199 W      6h5+      -0.0000    0.0000   -0.0000   -0.0000   -0.0000   -0.0000    0.0000   -0.0000   -0.0000    0.0000
      200 W      7h5+      -0.0000   -0.0000    0.0000    0.0000    0.0000    0.0000   -0.0000    0.0000    0.0000   -0.0000

          Orbital           11        12        13        14        15        16        17        18        19        20    
          Energy          -67.6457  -67.1397  -67.1001  -67.0984  -22.2053  -16.8662  -16.8548  -16.5452   -9.7387   -9.7316
          Occ. No.          2.0000    2.0000    2.0000    2.0000    2.0000    2.0000    2.0000    2.0000    2.0000    2.0000

        1 W      1s         0.0000    0.0000    0.0000   -0.0000    0.0000   -0.0000    0.0000   -0.0000   -0.0000   -0.0000
        2 W      2s         0.0000    0.0001    0.0000   -0.0000   -0.0001    0.0000   -0.0000    0.0001    0.0000   -0.0000
        3 W      3s         0.0002    0.0069    0.0006   -0.0000    0.0008   -0.0000    0.0000   -0.0006   -0.0000    0.0000
        4 W      4s        -0.0001   -0.0015   -0.0001    0.0000    0.9974   -0.0000    0.0013   -0.0521    0.0000    0.0008
        5 W      5s         0.0000    0.0005    0.0000   -0.0000    0.0198    0.0000    0.0002   -0.0061   -0.0000   -0.0013
        6 W      6s        -0.0000   -0.0001   -0.0000    0.0000   -0.0046    0.0000   -0.0000    0.0012    0.0000    0.0003
        7 W      7s         0.0000    0.0001    0.0000   -0.0000    0.0050   -0.0000    0.0000   -0.0013   -0.0000   -0.0003
        8 W      8s        -0.0000   -0.0004   -0.0000    0.0000   -0.0112    0.0000   -0.0001    0.0028   -0.0000    0.0006
        9 W      9s         0.0000    0.0005    0.0000   -0.0000    0.0117   -0.0000    0.0001   -0.0028    0.0000   -0.0004
       10 W     10s        -0.0000   -0.0005   -0.0000    0.0000   -0.0096    0.0000   -0.0001    0.0021   -0.0000    0.0001
       11 W     11s         0.0000    0.0007    0.0001   -0.0000    0.0055   -0.0000    0.0000   -0.0009    0.0000    0.0000
       12 W      2px       -0.0001    0.0000   -0.0004    0.0000    0.0000    0.0000   -0.0001   -0.0000    0.0000    0.0000
       13 W      3px       -0.0004    0.0031   -0.0367    0.0000   -0.0000   -0.0000    0.0003    0.0000   -0.0000    0.0002
       14 W      4px       -0.0006   -0.0003    0.0037   -0.0000    0.0000   -0.0000    0.9959    0.0241   -0.0000   -0.0018
       15 W      5px        0.0002    0.0001   -0.0013    0.0000    0.0000   -0.0000    0.0199    0.0004    0.0000    0.0013
       16 W      6px       -0.0001   -0.0000    0.0005   -0.0000   -0.0000    0.0000   -0.0067   -0.0001   -0.0000   -0.0004
       17 W      7px        0.0002    0.0001   -0.0015    0.0000    0.0000   -0.0000    0.0159    0.0002    0.0000    0.0008
       18 W      8px       -0.0002   -0.0001    0.0015   -0.0000   -0.0000    0.0000   -0.0117   -0.0002    0.0000   -0.0005
       19 W      9px        0.0002    0.0001   -0.0016    0.0000    0.0000   -0.0000    0.0081    0.0001   -0.0000    0.0002
       20 W     10px       -0.0002   -0.0001    0.0016   -0.0000   -0.0000    0.0000   -0.0045   -0.0001    0.0000   -0.0001
       21 W     11px        0.0002    0.0001   -0.0017    0.0000    0.0000   -0.0000    0.0006    0.0000   -0.0000   -0.0000
       22 W      2py        0.0000   -0.0000   -0.0000   -0.0004    0.0000   -0.0001   -0.0000    0.0000   -0.0000   -0.0000
       23 W      3py        0.0000   -0.0000   -0.0000   -0.0368   -0.0000    0.0002    0.0000   -0.0000   -0.0001    0.0000
       24 W      4py        0.0000    0.0000    0.0000    0.0037    0.0000    0.9962    0.0000   -0.0000    0.0030    0.0000
       25 W      5py       -0.0000   -0.0000   -0.0000   -0.0013    0.0000    0.0201    0.0000   -0.0000   -0.0007   -0.0000
       26 W      6py        0.0000    0.0000    0.0000    0.0005   -0.0000   -0.0068   -0.0000    0.0000    0.0003   -0.0000
       27 W      7py       -0.0000   -0.0000   -0.0000   -0.0015    0.0000    0.0161    0.0000   -0.0000   -0.0005    0.0000
       28 W      8py        0.0000    0.0000    0.0000    0.0015   -0.0000   -0.0119   -0.0000    0.0000    0.0003   -0.0000
       29 W      9py       -0.0000   -0.0000   -0.0000   -0.0016    0.0000    0.0082    0.0000   -0.0000   -0.0001    0.0000
       30 W     10py        0.0000    0.0000    0.0000    0.0016   -0.0000   -0.0045   -0.0000    0.0000    0.0001   -0.0000
       31 W     11py       -0.0000   -0.0000   -0.0000   -0.0017   -0.0000    0.0006    0.0000   -0.0000    0.0000    0.0000
       32 W      2pz        0.0000   -0.0001   -0.0000    0.0000    0.0000   -0.0000    0.0000   -0.0001   -0.0000    0.0000
       33 W      3pz        0.0000    0.0161    0.0013   -0.0000   -0.0009    0.0000   -0.0000    0.0019    0.0000    0.0000
       34 W      4pz       -0.0000   -0.0034   -0.0003    0.0000    0.0520    0.0000   -0.0241    0.9964    0.0000    0.0001
       35 W      5pz        0.0000    0.0011    0.0001   -0.0000   -0.0025    0.0000   -0.0007    0.0271   -0.0000    0.0000
       36 W      6pz       -0.0000   -0.0004   -0.0000    0.0000    0.0009   -0.0000    0.0003   -0.0092    0.0000   -0.0000
       37 W      7pz        0.0000    0.0013    0.0001   -0.0000   -0.0020    0.0000   -0.0007    0.0218   -0.0000   -0.0000
       38 W      8pz       -0.0000   -0.0013   -0.0001    0.0000    0.0015   -0.0000    0.0005   -0.0160    0.0000    0.0000
       39 W      9pz        0.0000    0.0014    0.0001   -0.0000   -0.0010    0.0000   -0.0003    0.0109    0.0000   -0.0000
       40 W     10pz       -0.0000   -0.0014   -0.0001    0.0000    0.0006   -0.0000    0.0001   -0.0059   -0.0000   -0.0000
       41 W     11pz        0.0000    0.0015    0.0001   -0.0000    0.0001    0.0000   -0.0000    0.0004    0.0000   -0.0000
       42 W      3d2-       0.0000    0.0000    0.0001    0.5305   -0.0000   -0.0020   -0.0000    0.0000   -0.0007   -0.0000
       43 W      4d2-       0.0000   -0.0000   -0.0000   -0.0026   -0.0000    0.0411    0.0000   -0.0000    0.8307    0.0000
       44 W      5d2-      -0.0000    0.0000    0.0000    0.0006    0.0000   -0.0035   -0.0000    0.0000    0.0156    0.0000
       45 W      6d2-       0.0000   -0.0000   -0.0000   -0.0008   -0.0000    0.0042    0.0000   -0.0000   -0.0168   -0.0000
       46 W      7d2-       0.0000    0.0000    0.0000    0.0011    0.0000   -0.0045   -0.0000    0.0000    0.0158    0.0000
       47 W      8d2-      -0.0000   -0.0000   -0.0000   -0.0014   -0.0000    0.0036    0.0000   -0.0000   -0.0112   -0.0000
       48 W      9d2-       0.0000    0.0000    0.0000    0.0015    0.0000   -0.0023   -0.0000    0.0000    0.0069    0.0000
       49 W     10d2-      -0.0000   -0.0000   -0.0000   -0.0018   -0.0000    0.0012    0.0000   -0.0000   -0.0038   -0.0000
       50 W     11d2-       0.0000    0.0000    0.0000    0.0014   -0.0000    0.0007    0.0000   -0.0000    0.0006    0.0000
       51 W      3d1-      -0.0000    0.0000    0.0001    0.8467   -0.0000   -0.0024   -0.0000    0.0000    0.0006    0.0000
       52 W      4d1-      -0.0000   -0.0000   -0.0000   -0.0032    0.0000    0.0662    0.0000    0.0000   -0.5545   -0.0000
       53 W      5d1-       0.0000    0.0000    0.0000    0.0008    0.0000   -0.0050   -0.0000    0.0000   -0.0109   -0.0000
       54 W      6d1-      -0.0000   -0.0000   -0.0000   -0.0011   -0.0000    0.0059    0.0000   -0.0000    0.0116    0.0000
       55 W      7d1-       0.0000    0.0000    0.0000    0.0014    0.0000   -0.0061   -0.0000    0.0000   -0.0108   -0.0000
       56 W      8d1-      -0.0000   -0.0000   -0.0000   -0.0018   -0.0000    0.0048    0.0000   -0.0000    0.0076    0.0000
       57 W      9d1-       0.0000    0.0000    0.0000    0.0020    0.0000   -0.0031   -0.0000    0.0000   -0.0046   -0.0000
       58 W     10d1-       0.0000   -0.0000   -0.0000   -0.0025    0.0000    0.0014    0.0000   -0.0000    0.0024    0.0000
       59 W     11d1-      -0.0000    0.0000    0.0000    0.0021    0.0000    0.0011    0.0000   -0.0000   -0.0004   -0.0000
       60 W      3d0        0.0024    0.9962    0.0848   -0.0000    0.0015    0.0000   -0.0001    0.0029    0.0000   -0.0000
       61 W      4d0        0.0000   -0.0034   -0.0003    0.0000   -0.0159   -0.0000    0.0007   -0.0383   -0.0000    0.0041
       62 W      5d0       -0.0000    0.0007    0.0001   -0.0000    0.0019    0.0000   -0.0001    0.0040    0.0000    0.0002
       63 W      6d0        0.0000   -0.0010   -0.0001    0.0000   -0.0024   -0.0000    0.0001   -0.0048    0.0000   -0.0002
       64 W      7d0       -0.0000    0.0014    0.0001   -0.0000    0.0028    0.0000   -0.0001    0.0053   -0.0000    0.0002
       65 W      8d0       -0.0000   -0.0018   -0.0002    0.0000   -0.0025   -0.0000    0.0001   -0.0044    0.0000   -0.0002
       66 W      9d0        0.0000    0.0021    0.0002   -0.0000    0.0018    0.0000   -0.0001    0.0030   -0.0000    0.0001
       67 W     10d0       -0.0000   -0.0026   -0.0002    0.0000   -0.0011   -0.0000    0.0000   -0.0017    0.0000   -0.0000
       68 W     11d0        0.0000    0.0022    0.0002   -0.0000   -0.0004   -0.0000    0.0000   -0.0007   -0.0000    0.0000
       69 W      3d1+       0.5241   -0.0734    0.8478   -0.0001    0.0000    0.0000   -0.0024   -0.0001   -0.0000   -0.0005
       70 W      4d1+       0.0007    0.0003   -0.0032    0.0000   -0.0006   -0.0000    0.0663    0.0018   -0.0000    0.5408
       71 W      5d1+      -0.0001   -0.0001    0.0008   -0.0000   -0.0000    0.0000   -0.0050   -0.0001    0.0000    0.0098
       72 W      6d1+       0.0001    0.0001   -0.0011    0.0000    0.0001   -0.0000    0.0059    0.0001   -0.0000   -0.0104
       73 W      7d1+      -0.0001   -0.0001    0.0014   -0.0000   -0.0001    0.0000   -0.0061   -0.0001    0.0000    0.0096
       74 W      8d1+       0.0001    0.0002   -0.0018    0.0000    0.0001   -0.0000    0.0049    0.0001   -0.0000   -0.0068
       75 W      9d1+      -0.0000   -0.0002    0.0020   -0.0000   -0.0001    0.0000   -0.0031   -0.0001    0.0000    0.0042
       76 W     10d1+      -0.0001    0.0002   -0.0025    0.0000    0.0000   -0.0000    0.0014    0.0000    0.0000   -0.0023
       77 W     11d1+       0.0003   -0.0002    0.0021   -0.0000   -0.0000   -0.0000    0.0010    0.0000    0.0000    0.0004
       78 W      3d2+       0.8516    0.0424   -0.5220    0.0001    0.0000   -0.0000    0.0020    0.0001   -0.0000   -0.0006
       79 W      4d2+       0.0003   -0.0002    0.0026   -0.0000   -0.0005    0.0000   -0.0412   -0.0010   -0.0000    0.8397
       80 W      5d2+       0.0000    0.0000   -0.0006    0.0000   -0.0000   -0.0000    0.0035    0.0001    0.0000    0.0152
       81 W      6d2+      -0.0000   -0.0001    0.0008   -0.0000    0.0001    0.0000   -0.0042   -0.0001   -0.0000   -0.0163
       82 W      7d2+       0.0001    0.0001   -0.0011    0.0000   -0.0001   -0.0000    0.0045    0.0001    0.0000    0.0154
       83 W      8d2+      -0.0002   -0.0001    0.0014   -0.0000    0.0001    0.0000   -0.0036   -0.0001   -0.0000   -0.0109
       84 W      9d2+       0.0003    0.0001   -0.0015    0.0000   -0.0001   -0.0000    0.0024    0.0001    0.0000    0.0069
       85 W     10d2+      -0.0006   -0.0001    0.0018   -0.0000    0.0000    0.0000   -0.0012   -0.0000    0.0000   -0.0038
       86 W     11d2+       0.0008    0.0001   -0.0014    0.0000   -0.0000    0.0000   -0.0007   -0.0000    0.0000    0.0005
       87 W      4f3-       0.0000    0.0000   -0.0000    0.0000   -0.0000   -0.0004   -0.0000   -0.0000    0.0000    0.0000
       88 W      5f3-       0.0000   -0.0000   -0.0000   -0.0000   -0.0000    0.0001    0.0000    0.0000    0.0000    0.0000
       89 W      6f3-      -0.0000    0.0000    0.0000    0.0000   -0.0000   -0.0000   -0.0000   -0.0000   -0.0000   -0.0000
       90 W      7f3-       0.0000   -0.0000   -0.0000    0.0000    0.0000   -0.0001    0.0000    0.0000    0.0000   -0.0000
       91 W      8f3-      -0.0000   -0.0000    0.0000   -0.0000   -0.0000    0.0001    0.0000    0.0000    0.0000    0.0000
       92 W      9f3-       0.0000    0.0000   -0.0000    0.0000   -0.0000   -0.0000   -0.0000   -0.0000   -0.0000   -0.0000
       93 W     10f3-      -0.0000   -0.0000    0.0000   -0.0000    0.0000    0.0000    0.0000    0.0000    0.0000    0.0000
       94 W     11f3-       0.0000    0.0000   -0.0000    0.0000   -0.0000   -0.0000   -0.0000   -0.0000   -0.0000   -0.0000
       95 W      4f2-       0.0000    0.0000    0.0000    0.0066    0.0000   -0.0142   -0.0000    0.0000    0.0288    0.0000
       96 W      5f2-      -0.0000   -0.0000   -0.0000   -0.0045   -0.0000    0.0059    0.0000   -0.0000   -0.0074    0.0000
       97 W      6f2-       0.0000    0.0000    0.0000    0.0042    0.0000   -0.0037   -0.0000    0.0000    0.0032   -0.0000
       98 W      7f2-      -0.0000   -0.0000   -0.0000   -0.0035    0.0000    0.0015    0.0000   -0.0000   -0.0002    0.0000
       99 W      8f2-       0.0000    0.0000    0.0000    0.0028   -0.0000   -0.0001    0.0000   -0.0000   -0.0009    0.0000
      100 W      9f2-      -0.0000   -0.0000   -0.0000   -0.0017    0.0000   -0.0006   -0.0000    0.0000    0.0010   -0.0000
      101 W     10f2-       0.0000    0.0000    0.0000    0.0011    0.0000    0.0010    0.0000   -0.0000   -0.0010    0.0000
      102 W     11f2-      -0.0000    0.0000    0.0000    0.0005   -0.0000   -0.0012   -0.0000    0.0000    0.0009   -0.0000
      103 W      4f1-      -0.0000    0.0000    0.0000    0.0012    0.0000   -0.0058   -0.0000    0.0000   -0.0123    0.0000
      104 W      5f1-       0.0000    0.0000   -0.0000   -0.0008    0.0000    0.0026    0.0000    0.0000    0.0023    0.0000
      105 W      6f1-      -0.0000   -0.0000    0.0000    0.0007   -0.0000   -0.0016   -0.0000   -0.0000   -0.0008    0.0000
      106 W      7f1-       0.0000    0.0000   -0.0000   -0.0006    0.0000    0.0005    0.0000    0.0000   -0.0002   -0.0000
      107 W      8f1-      -0.0000    0.0000    0.0000    0.0006    0.0000    0.0002    0.0000   -0.0000    0.0005   -0.0000
      108 W      9f1-       0.0000   -0.0000   -0.0000   -0.0004   -0.0000   -0.0005   -0.0000    0.0000   -0.0004   -0.0000
      109 W     10f1-      -0.0000    0.0000    0.0000    0.0003    0.0000    0.0006    0.0000   -0.0000    0.0004    0.0000
      110 W     11f1-       0.0000   -0.0000   -0.0000   -0.0002   -0.0000   -0.0005   -0.0000    0.0000   -0.0003   -0.0000
      111 W      4f0        0.0000   -0.0029   -0.0003    0.0000   -0.0274   -0.0000    0.0005   -0.0081    0.0000   -0.0008
      112 W      5f0       -0.0000    0.0020    0.0002   -0.0000    0.0125   -0.0000   -0.0001    0.0032   -0.0000    0.0002
      113 W      6f0        0.0000   -0.0018   -0.0002    0.0000   -0.0080    0.0000   -0.0001   -0.0021    0.0000   -0.0001
      114 W      7f0       -0.0000    0.0014    0.0001   -0.0000    0.0032   -0.0000    0.0001    0.0008    0.0000    0.0000
      115 W      8f0        0.0000   -0.0010   -0.0001    0.0000    0.0002   -0.0000   -0.0000    0.0001   -0.0000   -0.0000
      116 W      9f0       -0.0000    0.0005    0.0000   -0.0000   -0.0020    0.0000    0.0000   -0.0006   -0.0000   -0.0000
      117 W     10f0        0.0000   -0.0001   -0.0000    0.0000    0.0028    0.0000   -0.0000    0.0007   -0.0000    0.0000
      118 W     11f0       -0.0000   -0.0008   -0.0001    0.0000   -0.0031   -0.0000    0.0000   -0.0007   -0.0000   -0.0000
      119 W      4f1+       0.0012   -0.0001    0.0012   -0.0000   -0.0000    0.0000   -0.0056   -0.0007   -0.0000    0.0120
      120 W      5f1+      -0.0008    0.0001   -0.0008    0.0000    0.0000   -0.0000    0.0026    0.0002   -0.0000   -0.0022
      121 W      6f1+       0.0008   -0.0001    0.0007   -0.0000    0.0000    0.0000   -0.0016   -0.0000   -0.0000    0.0008
      122 W      7f1+      -0.0007    0.0001   -0.0006    0.0000   -0.0000   -0.0000    0.0006   -0.0001    0.0000    0.0002
      123 W      8f1+       0.0006   -0.0000    0.0006   -0.0000    0.0000   -0.0000    0.0001    0.0001    0.0000   -0.0005
      124 W      9f1+      -0.0004    0.0000   -0.0004    0.0000    0.0000    0.0000   -0.0005   -0.0000   -0.0000    0.0004
      125 W     10f1+       0.0004   -0.0000    0.0003   -0.0000   -0.0000   -0.0000    0.0006    0.0000   -0.0000   -0.0004
      126 W     11f1+      -0.0002    0.0000   -0.0002    0.0000   -0.0000    0.0000   -0.0005   -0.0000   -0.0000    0.0003
      127 W      4f2+       0.0032    0.0005   -0.0065    0.0000   -0.0000   -0.0000    0.0133   -0.0000    0.0000    0.0299
      128 W      5f2+      -0.0022   -0.0004    0.0045   -0.0000    0.0000    0.0000   -0.0058   -0.0001    0.0000   -0.0078
      129 W      6f2+       0.0020    0.0003   -0.0041    0.0000   -0.0000   -0.0000    0.0039    0.0002   -0.0000    0.0034
      130 W      7f2+      -0.0017   -0.0003    0.0034   -0.0000   -0.0000    0.0000   -0.0017   -0.0001    0.0000   -0.0002
      131 W      8f2+       0.0014    0.0002   -0.0027    0.0000    0.0000   -0.0000    0.0002    0.0000    0.0000   -0.0009
      132 W      9f2+      -0.0010   -0.0001    0.0017   -0.0000   -0.0000   -0.0000    0.0007    0.0000   -0.0000    0.0011
      133 W     10f2+       0.0007    0.0001   -0.0011    0.0000    0.0000    0.0000   -0.0010   -0.0000    0.0000   -0.0010
      134 W     11f2+      -0.0002    0.0000   -0.0005    0.0000    0.0000   -0.0000    0.0012    0.0000   -0.0000    0.0009
      135 W      4f3+       0.0000    0.0024    0.0002   -0.0000   -0.0180    0.0000   -0.0008    0.0148   -0.0000   -0.0000
      136 W      5f3+      -0.0000   -0.0016   -0.0001    0.0000    0.0082    0.0000    0.0002   -0.0063   -0.0000    0.0000
      137 W      6f3+       0.0000    0.0015    0.0001   -0.0000   -0.0053   -0.0000    0.0000    0.0040    0.0000   -0.0000
      138 W      7f3+      -0.0000   -0.0013   -0.0001    0.0000    0.0021    0.0000   -0.0001   -0.0016    0.0000    0.0000
      139 W      8f3+       0.0000    0.0010    0.0001   -0.0000    0.0001    0.0000    0.0000    0.0001   -0.0000    0.0000
      140 W      9f3+      -0.0000   -0.0007   -0.0001    0.0000   -0.0013   -0.0000    0.0000    0.0007    0.0000   -0.0000
      141 W     10f3+       0.0000    0.0004    0.0000   -0.0000    0.0018   -0.0000    0.0000   -0.0011   -0.0000    0.0000
      142 W     11f3+      -0.0000    0.0001    0.0000   -0.0000   -0.0020    0.0000   -0.0000    0.0013   -0.0000    0.0000
      143 W      5g4-      -0.0000    0.0000    0.0000    0.0006    0.0000   -0.0036   -0.0000    0.0000   -0.0003   -0.0000
      144 W      6g4-       0.0000   -0.0000   -0.0000   -0.0005   -0.0000    0.0028    0.0000   -0.0000    0.0004   -0.0000
      145 W      7g4-      -0.0000    0.0000    0.0000    0.0004   -0.0000   -0.0021   -0.0000    0.0000   -0.0003    0.0000
      146 W      8g4-       0.0000   -0.0000   -0.0000   -0.0003    0.0000    0.0013    0.0000   -0.0000    0.0002    0.0000
      147 W      5g3-       0.0000   -0.0000    0.0000   -0.0000    0.0000   -0.0000   -0.0000    0.0000   -0.0002    0.0000
      148 W      6g3-      -0.0000    0.0000    0.0000    0.0000   -0.0000    0.0000    0.0000   -0.0000    0.0001   -0.0000
      149 W      7g3-       0.0000   -0.0000   -0.0000   -0.0000   -0.0000   -0.0000   -0.0000    0.0000    0.0000   -0.0000
      150 W      8g3-      -0.0000    0.0000    0.0000    0.0000    0.0000    0.0000    0.0000   -0.0000   -0.0000    0.0000
      151 W      5g2-      -0.0000   -0.0000   -0.0000   -0.0004   -0.0000    0.0002    0.0000    0.0000   -0.0006    0.0000
      152 W      6g2-       0.0000    0.0000    0.0000    0.0004    0.0000   -0.0004   -0.0000   -0.0000    0.0003    0.0000
      153 W      7g2-      -0.0000   -0.0000   -0.0000   -0.0004    0.0000    0.0003    0.0000    0.0000   -0.0001   -0.0000
      154 W      8g2-       0.0000    0.0000    0.0000    0.0003   -0.0000   -0.0002   -0.0000   -0.0000    0.0001   -0.0000
      155 W      5g1-       0.0000    0.0000    0.0000    0.0005   -0.0000   -0.0043   -0.0000    0.0000    0.0016    0.0000
      156 W      6g1-      -0.0000   -0.0000   -0.0000   -0.0003    0.0000    0.0034    0.0000   -0.0000   -0.0013    0.0000
      157 W      7g1-       0.0000    0.0000    0.0000    0.0003    0.0000   -0.0026   -0.0000    0.0000    0.0011   -0.0000
      158 W      8g1-      -0.0000   -0.0000   -0.0000   -0.0002   -0.0000    0.0016    0.0000   -0.0000   -0.0007    0.0000
      159 W      5g0        0.0000   -0.0011   -0.0001    0.0000   -0.0003   -0.0000    0.0002   -0.0073    0.0000    0.0001
      160 W      6g0        0.0000    0.0009    0.0001   -0.0000    0.0002    0.0000   -0.0001    0.0057   -0.0000   -0.0000
      161 W      7g0       -0.0000   -0.0008   -0.0001    0.0000   -0.0002   -0.0000    0.0001   -0.0044   -0.0000   -0.0000
      162 W      8g0        0.0000    0.0005    0.0000   -0.0000    0.0002    0.0000   -0.0001    0.0027    0.0000    0.0000
      163 W      5g1+      -0.0002   -0.0001    0.0005   -0.0000    0.0000    0.0000   -0.0043   -0.0001   -0.0000   -0.0013
      164 W      6g1+       0.0002    0.0000   -0.0003    0.0000   -0.0000   -0.0000    0.0034    0.0001   -0.0000    0.0012
      165 W      7g1+      -0.0002   -0.0000    0.0003   -0.0000   -0.0000    0.0000   -0.0026   -0.0001    0.0000   -0.0012
      166 W      8g1+       0.0002    0.0000   -0.0002    0.0000    0.0000   -0.0000    0.0016    0.0000   -0.0000    0.0008
      167 W      5g2+      -0.0001   -0.0000    0.0004   -0.0000   -0.0000   -0.0000   -0.0002    0.0000    0.0000   -0.0010
      168 W      6g2+       0.0001    0.0000   -0.0004    0.0000    0.0000   -0.0000    0.0004    0.0000    0.0000    0.0005
      169 W      7g2+      -0.0001   -0.0000    0.0003   -0.0000    0.0000    0.0000   -0.0003   -0.0000   -0.0000   -0.0002
      170 W      8g2+       0.0000    0.0000   -0.0002    0.0000   -0.0000   -0.0000    0.0002    0.0000   -0.0000    0.0001
      171 W      5g3+      -0.0000   -0.0003   -0.0000    0.0000    0.0032   -0.0000    0.0001   -0.0043   -0.0000   -0.0005
      172 W      6g3+       0.0000    0.0002    0.0000   -0.0000   -0.0027    0.0000   -0.0001    0.0036   -0.0000    0.0002
      173 W      7g3+      -0.0000   -0.0002   -0.0000    0.0000    0.0023   -0.0000    0.0001   -0.0028    0.0000    0.0001
      174 W      8g3+       0.0000    0.0001    0.0000   -0.0000   -0.0015    0.0000   -0.0000    0.0017   -0.0000   -0.0001
      175 W      5g4+      -0.0000   -0.0000    0.0006   -0.0000   -0.0000    0.0000   -0.0036   -0.0001    0.0000   -0.0003
      176 W      6g4+      -0.0000    0.0000   -0.0005    0.0000    0.0000   -0.0000    0.0028    0.0001    0.0000   -0.0001
      177 W      7g4+       0.0000   -0.0000    0.0004   -0.0000    0.0000    0.0000   -0.0021   -0.0001   -0.0000    0.0003
      178 W      8g4+      -0.0000    0.0000   -0.0003    0.0000   -0.0000   -0.0000    0.0013    0.0000   -0.0000   -0.0003
      179 W      6h5-      -0.0000   -0.0000   -0.0000   -0.0000    0.0000    0.0002    0.0000   -0.0000   -0.0009   -0.0000
      180 W      7h5-       0.0000    0.0000    0.0000    0.0001   -0.0000   -0.0002   -0.0000    0.0000    0.0010    0.0000
      181 W      6h4-       0.0000   -0.0000   -0.0000   -0.0001    0.0000    0.0004    0.0000    0.0000    0.0004   -0.0000
      182 W      7h4-      -0.0000    0.0000    0.0000    0.0001   -0.0000   -0.0005   -0.0000   -0.0000   -0.0005   -0.0000
      183 W      6h3-       0.0000   -0.0000    0.0000   -0.0000   -0.0000   -0.0000   -0.0000    0.0000   -0.0000    0.0000
      184 W      7h3-      -0.0000   -0.0000    0.0000    0.0000   -0.0000    0.0000    0.0000   -0.0000    0.0000   -0.0000
      185 W      6h2-      -0.0000   -0.0000   -0.0000   -0.0000   -0.0000    0.0003    0.0000   -0.0000   -0.0006    0.0000
      186 W      7h2-       0.0000    0.0000    0.0000    0.0000   -0.0000   -0.0003   -0.0000    0.0000    0.0007    0.0000
      187 W      6h1-       0.0000   -0.0000   -0.0000   -0.0001    0.0000    0.0005    0.0000   -0.0000    0.0008    0.0000
      188 W      7h1-      -0.0000    0.0000    0.0000    0.0001    0.0000   -0.0004   -0.0000    0.0000   -0.0008   -0.0000
      189 W      6h0       -0.0000   -0.0001   -0.0000    0.0000   -0.0001    0.0000    0.0000   -0.0009    0.0000    0.0000
      190 W      7h0        0.0000    0.0001    0.0000   -0.0000    0.0002   -0.0000    0.0000    0.0006   -0.0000   -0.0000
      191 W      6h1+      -0.0000    0.0000   -0.0001    0.0000    0.0000   -0.0000    0.0006    0.0000   -0.0000   -0.0008
      192 W      7h1+       0.0000   -0.0000    0.0001   -0.0000   -0.0000    0.0000   -0.0004   -0.0000    0.0000    0.0008
      193 W      6h2+      -0.0000   -0.0000    0.0000   -0.0000    0.0000    0.0000   -0.0003   -0.0000    0.0000   -0.0006
      194 W      7h2+       0.0000    0.0000   -0.0000    0.0000    0.0000   -0.0000    0.0002    0.0000   -0.0000    0.0007
      195 W      6h3+      -0.0000   -0.0000   -0.0000    0.0000   -0.0002    0.0000   -0.0000    0.0001   -0.0000   -0.0000
      196 W      7h3+       0.0000    0.0000    0.0000   -0.0000    0.0003   -0.0000    0.0000   -0.0003    0.0000    0.0000
      197 W      6h4+      -0.0000    0.0000   -0.0001    0.0000    0.0000   -0.0000    0.0004   -0.0000    0.0000   -0.0004
      198 W      7h4+       0.0000   -0.0000    0.0001   -0.0000    0.0000    0.0000   -0.0005    0.0000   -0.0000    0.0005
      199 W      6h5+      -0.0000   -0.0000    0.0000   -0.0000    0.0000   -0.0000   -0.0003   -0.0000    0.0000   -0.0009
      200 W      7h5+       0.0001    0.0000   -0.0001    0.0000   -0.0000    0.0000    0.0002    0.0000   -0.0000    0.0010

          Orbital           21        22        23        24        25        26        27        28        29        30    
          Energy           -9.2631   -9.2273   -9.2243   -3.7718   -2.3415   -2.3315   -2.3031   -1.5906   -1.5209   -1.4684
          Occ. No.          2.0000    2.0000    2.0000    2.0000    2.0000    2.0000    2.0000    2.0000    2.0000    2.0000

        1 W      1s        -0.0000   -0.0000    0.0000   -0.0000    0.0000    0.0000    0.0000    0.0000    0.0000   -0.0000
        2 W      2s        -0.0000   -0.0000    0.0000    0.0000   -0.0000   -0.0000   -0.0000    0.0000    0.0000    0.0000
        3 W      3s         0.0008    0.0002   -0.0000   -0.0001    0.0000    0.0000    0.0001    0.0000    0.0006    0.0000
        4 W      4s         0.0127    0.0028   -0.0000   -0.0168    0.0003    0.0000    0.0040    0.0000    0.0038    0.0000
        5 W      5s         0.0121    0.0018   -0.0000    0.9947   -0.0061   -0.0000   -0.0595   -0.0000   -0.0120   -0.0000
        6 W      6s        -0.0022   -0.0003    0.0000    0.0283   -0.0009   -0.0000   -0.0093   -0.0000   -0.0105   -0.0000
        7 W      7s         0.0022    0.0003   -0.0000   -0.0193    0.0004    0.0000    0.0068    0.0000    0.0068    0.0000
        8 W      8s        -0.0042   -0.0006    0.0000    0.0308   -0.0004   -0.0000   -0.0084   -0.0000   -0.0074   -0.0000
        9 W      9s         0.0035    0.0006   -0.0000   -0.0172    0.0002    0.0000    0.0029   -0.0000    0.0023    0.0000
       10 W     10s        -0.0022   -0.0004    0.0000    0.0049   -0.0001   -0.0000   -0.0004   -0.0000   -0.0007   -0.0000
       11 W     11s         0.0008    0.0002   -0.0000   -0.0036    0.0000    0.0000    0.0007   -0.0000    0.0007    0.0000
       12 W      2px       -0.0000    0.0001   -0.0000    0.0000    0.0000    0.0000   -0.0000   -0.0000    0.0000   -0.0000
       13 W      3px        0.0006   -0.0032    0.0000   -0.0000   -0.0001   -0.0000    0.0000   -0.0000    0.0001   -0.0000
       14 W      4px        0.0146   -0.0732    0.0000   -0.0001   -0.0185   -0.0000    0.0013   -0.0000    0.0011   -0.0000
       15 W      5px        0.0054   -0.0269    0.0000    0.0015    0.9910    0.0001   -0.0733    0.0000   -0.0050    0.0000
       16 W      6px       -0.0014    0.0073   -0.0000   -0.0001    0.0221    0.0000   -0.0046   -0.0000   -0.0012    0.0000
       17 W      7px        0.0028   -0.0149    0.0000   -0.0001   -0.0380   -0.0000    0.0035    0.0000   -0.0004   -0.0000
       18 W      8px       -0.0018    0.0093   -0.0000    0.0001    0.0116    0.0000   -0.0003    0.0000    0.0001   -0.0000
       19 W      9px        0.0010   -0.0051    0.0000    0.0000    0.0008    0.0000    0.0001   -0.0000    0.0004    0.0000
       20 W     10px       -0.0005    0.0024   -0.0000   -0.0000    0.0020    0.0000   -0.0001    0.0000   -0.0001    0.0000
       21 W     11px       -0.0000    0.0001   -0.0000   -0.0000   -0.0004   -0.0000    0.0000   -0.0000    0.0000    0.0000
       22 W      2py        0.0000    0.0000    0.0001   -0.0000   -0.0000    0.0000   -0.0000    0.0000   -0.0000    0.0000
       23 W      3py       -0.0000   -0.0000   -0.0032    0.0000    0.0000   -0.0001    0.0000   -0.0000   -0.0000    0.0003
       24 W      4py       -0.0000   -0.0000   -0.0744   -0.0000    0.0000   -0.0186    0.0000   -0.0000   -0.0000    0.0014
       25 W      5py       -0.0000   -0.0000   -0.0272    0.0000   -0.0001    0.9938   -0.0000    0.0096   -0.0000   -0.0178
       26 W      6py        0.0000    0.0000    0.0074    0.0000   -0.0000    0.0292   -0.0000   -0.0041   -0.0000   -0.0046
       27 W      7py       -0.0000   -0.0000   -0.0153   -0.0000    0.0000   -0.0397    0.0000    0.0007    0.0000    0.0044
       28 W      8py        0.0000    0.0000    0.0095    0.0000   -0.0000    0.0101   -0.0000    0.0011    0.0000   -0.0003
       29 W      9py       -0.0000   -0.0000   -0.0052   -0.0000   -0.0000    0.0004   -0.0000   -0.0000   -0.0000   -0.0002
       30 W     10py        0.0000    0.0000    0.0025   -0.0000   -0.0000    0.0022   -0.0000   -0.0001   -0.0000   -0.0002
       31 W     11py        0.0000    0.0000    0.0001   -0.0000    0.0000   -0.0004    0.0000   -0.0000   -0.0000   -0.0000
       32 W      2pz        0.0000    0.0000   -0.0000   -0.0000    0.0000    0.0000    0.0000   -0.0000   -0.0000   -0.0000
       33 W      3pz        0.0024    0.0005   -0.0000    0.0003   -0.0000   -0.0000   -0.0006   -0.0000   -0.0027   -0.0000
       34 W      4pz        0.0360    0.0068   -0.0000    0.0026   -0.0017   -0.0000   -0.0238   -0.0000   -0.0171   -0.0000
       35 W      5pz        0.0179    0.0035   -0.0000    0.0621    0.0736    0.0000    0.9866    0.0000    0.1064   -0.0000
       36 W      6pz       -0.0053   -0.0010    0.0000   -0.0065   -0.0004    0.0000    0.0333   -0.0000    0.0425   -0.0000
       37 W      7pz        0.0110    0.0021   -0.0000    0.0076   -0.0031   -0.0000   -0.0480    0.0000   -0.0391    0.0000
       38 W      8pz       -0.0068   -0.0013    0.0000   -0.0013    0.0016    0.0000    0.0135    0.0000    0.0042    0.0000
       39 W      9pz        0.0037    0.0007   -0.0000   -0.0003    0.0002    0.0000   -0.0001   -0.0000   -0.0001   -0.0000
       40 W     10pz       -0.0018   -0.0003    0.0000   -0.0003    0.0002    0.0000    0.0028   -0.0000    0.0032   -0.0000
       41 W     11pz       -0.0002   -0.0000    0.0000   -0.0000   -0.0000   -0.0000   -0.0003   -0.0000   -0.0003   -0.0000
       42 W      3d2-       0.0000    0.0000    0.0019    0.0000   -0.0000    0.0003   -0.0000    0.0002    0.0000    0.0019
       43 W      4d2-       0.0000    0.0001    0.5491    0.0000   -0.0000    0.0090   -0.0000    0.0015    0.0000    0.0190
       44 W      5d2-       0.0000    0.0000    0.0170   -0.0000   -0.0000    0.0157   -0.0000    0.0053    0.0000    0.0450
       45 W      6d2-      -0.0000   -0.0000   -0.0188    0.0000    0.0000   -0.0101    0.0000   -0.0025   -0.0000   -0.0223
       46 W      7d2-       0.0000    0.0000    0.0179   -0.0000   -0.0000    0.0049   -0.0000    0.0007    0.0000    0.0079
       47 W      8d2-      -0.0000   -0.0000   -0.0127   -0.0000    0.0000   -0.0017    0.0000   -0.0002   -0.0000   -0.0027
       48 W      9d2-       0.0000    0.0000    0.0078    0.0000   -0.0000    0.0011   -0.0000    0.0002    0.0000    0.0023
       49 W     10d2-      -0.0000   -0.0000   -0.0043    0.0000    0.0000   -0.0007    0.0000   -0.0001   -0.0000   -0.0012
       50 W     11d2-       0.0000    0.0000    0.0000    0.0000    0.0000   -0.0002    0.0000    0.0000    0.0000    0.0002
       51 W      3d1-       0.0000    0.0000    0.0027    0.0000   -0.0000    0.0006   -0.0000    0.0001    0.0000   -0.0003
       52 W      4d1-       0.0000    0.0002    0.8260   -0.0000   -0.0000    0.0143   -0.0000    0.0005    0.0000   -0.0052
       53 W      5d1-       0.0000    0.0000    0.0260    0.0000   -0.0000    0.0409   -0.0000    0.0027   -0.0000    0.0269
       54 W      6d1-      -0.0000   -0.0000   -0.0285   -0.0000    0.0000   -0.0248    0.0000   -0.0018   -0.0000   -0.0106
       55 W      7d1-       0.0000    0.0000    0.0271    0.0000   -0.0000    0.0103   -0.0000    0.0006    0.0000    0.0016
       56 W      8d1-      -0.0000   -0.0000   -0.0191    0.0000    0.0000   -0.0022    0.0000   -0.0001   -0.0000    0.0002
       57 W      9d1-       0.0000    0.0000    0.0116   -0.0000   -0.0000    0.0016   -0.0000    0.0001    0.0000    0.0005
       58 W     10d1-      -0.0000   -0.0000   -0.0063   -0.0000    0.0000   -0.0011    0.0000   -0.0001   -0.0000   -0.0002
       59 W     11d1-       0.0000    0.0000    0.0001   -0.0000    0.0000   -0.0003    0.0000    0.0000    0.0000   -0.0000
       60 W      3d0        0.0030    0.0006   -0.0000   -0.0005   -0.0001   -0.0000   -0.0006   -0.0000   -0.0030   -0.0000
       61 W      4d0        0.9778    0.1905   -0.0000   -0.0122   -0.0010   -0.0000   -0.0115   -0.0000   -0.0286   -0.0000
       62 W      5d0        0.0287    0.0056   -0.0000   -0.0035   -0.0003   -0.0000    0.0038   -0.0000   -0.1064    0.0000
       63 W      6d0       -0.0316   -0.0062    0.0000    0.0036   -0.0002    0.0000    0.0005    0.0000    0.0517   -0.0000
       64 W      7d0        0.0302    0.0059   -0.0000   -0.0034   -0.0001   -0.0000   -0.0033    0.0000   -0.0169    0.0000
       65 W      8d0       -0.0215   -0.0042    0.0000    0.0025    0.0003    0.0000    0.0032    0.0000    0.0052    0.0000
       66 W      9d0        0.0132    0.0025   -0.0000   -0.0015   -0.0001   -0.0000   -0.0016   -0.0000   -0.0049    0.0000
       67 W     10d0       -0.0071   -0.0014    0.0000    0.0009    0.0001    0.0000    0.0009    0.0000    0.0027    0.0000
       68 W     11d0        0.0002    0.0000   -0.0000    0.0001    0.0000    0.0000    0.0002   -0.0000   -0.0003   -0.0000
       69 W      3d1+      -0.0005    0.0027   -0.0000   -0.0000    0.0006    0.0000   -0.0000    0.0000   -0.0001    0.0000
       70 W      4d1+      -0.1619    0.8192   -0.0002    0.0012    0.0143    0.0000   -0.0010    0.0000   -0.0014    0.0000
       71 W      5d1+      -0.0050    0.0256   -0.0000    0.0020    0.0399    0.0000   -0.0012    0.0000   -0.0055   -0.0000
       72 W      6d1+       0.0054   -0.0280    0.0000   -0.0008   -0.0252   -0.0000    0.0009   -0.0000    0.0025    0.0000
       73 W      7d1+      -0.0051    0.0266   -0.0000   -0.0003    0.0105    0.0000   -0.0007    0.0000   -0.0008   -0.0000
       74 W      8d1+       0.0037   -0.0188    0.0000    0.0002   -0.0019   -0.0000    0.0003   -0.0000    0.0002   -0.0000
       75 W      9d1+      -0.0023    0.0114   -0.0000    0.0003    0.0016    0.0000   -0.0001    0.0000   -0.0002   -0.0000
       76 W     10d1+       0.0012   -0.0062    0.0000   -0.0000   -0.0012   -0.0000    0.0001   -0.0000    0.0001    0.0000
       77 W     11d1+      -0.0000    0.0001   -0.0000   -0.0000   -0.0003   -0.0000    0.0000   -0.0000   -0.0000   -0.0000
       78 W      3d2+       0.0003   -0.0019    0.0000   -0.0000   -0.0003   -0.0000    0.0000   -0.0000    0.0002    0.0000
       79 W      4d2+       0.0990   -0.5261    0.0001    0.0008   -0.0091   -0.0000    0.0007   -0.0000    0.0016    0.0000
       80 W      5d2+       0.0033   -0.0166    0.0000    0.0029   -0.0125   -0.0000    0.0011    0.0000    0.0042    0.0000
       81 W      6d2+      -0.0036    0.0183   -0.0000   -0.0014    0.0090    0.0000   -0.0009    0.0000   -0.0023   -0.0000
       82 W      7d2+       0.0034   -0.0175    0.0000   -0.0001   -0.0051   -0.0000    0.0005   -0.0000    0.0007    0.0000
       83 W      8d2+      -0.0025    0.0124   -0.0000    0.0004    0.0019    0.0000   -0.0001    0.0000   -0.0002   -0.0000
       84 W      9d2+       0.0015   -0.0076    0.0000    0.0002   -0.0010   -0.0000    0.0001   -0.0000    0.0003    0.0000
       85 W     10d2+      -0.0008    0.0042   -0.0000   -0.0000    0.0007    0.0000   -0.0001    0.0000   -0.0001   -0.0000
       86 W     11d2+       0.0000   -0.0000    0.0000   -0.0000    0.0002    0.0000   -0.0000   -0.0000    0.0000    0.0000
       87 W      4f3-       0.0000   -0.0000    0.0001   -0.0000   -0.0000   -0.0083    0.0000    0.9906   -0.0000   -0.0361
       88 W      5f3-      -0.0000   -0.0000   -0.0001   -0.0000   -0.0000   -0.0063    0.0000    0.1283   -0.0000   -0.0052
[...]
         2   14       6.45423993E-02  3.16639220E+07  8.61768191E+04  2.92337236E+07  6.09838224E+07
         2   16       3.11768921E-02  1.45940238E+05  2.94579880E+07  8.06041731E-03  2.96039282E+07
         2   18       4.81304639E-05  7.46860850E+02  1.50598243E+05  8.81422169E-04  1.51345105E+05
         3    5       1.05633205E-04  1.19577634E+03  5.92792263E+00  5.30864588E-06  1.20170426E+03
         3    7       1.83782462E-03  6.83499395E+04  3.67825132E+02  9.01614517E+04  1.58879216E+05
         3    9       7.99604104E-04  3.67874672E+02  6.83527849E+04  4.10208047E+02  6.91308676E+04
         3   11       6.45433656E-02  3.16645500E+07  8.61167508E+04  2.92333606E+07  6.09840274E+07
         3   13       3.38409911E-02  8.60416009E+04  3.16589075E+07  2.30024184E+05  3.19749733E+07
         3   15       3.11806721E-02  2.94612517E+07  1.46101308E+05  1.16861088E-06  2.96073530E+07
         3   17       4.81465382E-05  1.50648661E+05  7.46312541E+02  2.14629599E-01  1.51395188E+05
         4    6       1.05633205E-04  1.19577634E+03  5.92792263E+00  5.30864588E-06  1.20170426E+03
         4    8       1.83782462E-03  6.83499395E+04  3.67825132E+02  9.01614517E+04  1.58879216E+05
         4   10       7.99604104E-04  3.67874672E+02  6.83527849E+04  4.10208047E+02  6.91308676E+04
         4   12       6.45433656E-02  3.16645500E+07  8.61167508E+04  2.92333606E+07  6.09840274E+07
         4   14       3.38409911E-02  8.60416009E+04  3.16589075E+07  2.30024184E+05  3.19749733E+07
         4   16       3.11806721E-02  2.94612517E+07  1.46101308E+05  1.16861088E-06  2.96073530E+07
         4   18       4.81465382E-05  1.50648661E+05  7.46312541E+02  2.14629599E-01  1.51395188E+05
         5    7       2.00402692E-04  7.03512020E+03  6.09469402E-02  9.74386573E-05  7.03518124E+03
         5    9       2.00457428E-04  6.09063308E-02  7.03790565E+03  4.28231496E-08  7.03796655E+03
         5   11       2.20072530E-02  1.64752639E+07  5.45079953E+03  1.76365507E-04  1.64807147E+07
         5   13       2.20096694E-02  5.44987364E+03  1.64771862E+07  2.98794964E-02  1.64826361E+07
         5   15       8.42995157E-02  1.99850572E-02  8.58426521E-03  6.34818354E+07  6.34818355E+07
         5   17       3.34820499E-02  6.28938372E-02  3.50464156E-05  9.29988305E+07  9.29988305E+07
         6    8       2.00402692E-04  7.03512020E+03  6.09469402E-02  9.74386573E-05  7.03518124E+03
         6   10       2.00457428E-04  6.09063308E-02  7.03790565E+03  4.28231496E-08  7.03796655E+03
         6   12       2.20072530E-02  1.64752639E+07  5.45079953E+03  1.76365507E-04  1.64807147E+07
         6   14       2.20096694E-02  5.44987364E+03  1.64771862E+07  2.98794964E-02  1.64826361E+07
         6   16       8.42995157E-02  1.99850572E-02  8.58426521E-03  6.34818354E+07  6.34818355E+07
         6   18       3.34820499E-02  6.28938372E-02  3.50464156E-05  9.29988305E+07  9.29988305E+07
         7   11       5.78022207E-02  1.24587368E+07  2.89427380E+03  1.41101149E+07  2.65717459E+07
         7   13       2.71119205E-02  2.88689488E+03  1.24543004E+07  6.30104760E+03  1.24634883E+07
         7   15       3.24268210E-02  1.50126163E+07  1.28315858E+02  4.92226668E-02  1.50127446E+07
         7   17       2.18993478E-02  4.79187478E+07  4.14874910E+02  3.65908785E-03  4.79191627E+07
         8   12       5.78022207E-02  1.24587368E+07  2.89427380E+03  1.41101149E+07  2.65717459E+07
         8   14       2.71119205E-02  2.88689488E+03  1.24543004E+07  6.30104760E+03  1.24634883E+07
         8   16       3.24268210E-02  1.50126163E+07  1.28315858E+02  4.92226668E-02  1.50127446E+07
         8   18       2.18993478E-02  4.79187478E+07  4.14874910E+02  3.65908785E-03  4.79191627E+07
         9   11       2.71144226E-02  2.89433271E+03  1.24549130E+07  6.30050093E+03  1.24641078E+07
         9   13       5.77974572E-02  1.24559507E+07  2.90338346E+03  1.41100309E+07  2.65688850E+07
         9   15       3.24288188E-02  1.31676343E+02  1.50130304E+07  6.96989380E-03  1.50131621E+07
         9   17       2.18988428E-02  4.14931395E+02  4.79168978E+07  3.62475161E-05  4.79173127E+07
        10   12       2.71144226E-02  2.89433271E+03  1.24549130E+07  6.30050093E+03  1.24641078E+07
        10   14       5.77974572E-02  1.24559507E+07  2.90338346E+03  1.41100309E+07  2.65688850E+07
        10   16       3.24288188E-02  1.31676343E+02  1.50130304E+07  6.96989380E-03  1.50131621E+07
        10   18       2.18988428E-02  4.14931395E+02  4.79168978E+07  3.62475161E-05  4.79173127E+07
        11   17       1.39631179E-01  8.96090107E+07  2.96485621E+04  4.57519599E-01  8.96386597E+07
        12   18       1.39631179E-01  8.96090107E+07  2.96485621E+04  4.57519599E-01  8.96386597E+07
        13   17       1.39655323E-01  2.96416866E+04  8.96238605E+07  1.51210872E-02  8.96535022E+07
        14   18       1.39655323E-01  2.96416866E+04  8.96238605E+07  1.51210872E-02  8.96535022E+07
        15   17       6.34729828E-02  1.11593995E-01  3.89740506E-02  4.05029653E+07  4.05029654E+07
        16   18       6.34729828E-02  1.11593995E-01  3.89740506E-02  4.05029653E+07  4.05029654E+07
     -----------------------------------------------------------------------------------------------
--

++ Velocity transition strengths (SO states):
   ------------------------------------------
    for osc. strength at least    1.0000000000000001E-005

      From   To        Osc. strength     Einstein coefficients Ax, Ay, Az (sec-1)    Total A (sec-1)
     -----------------------------------------------------------------------------------------------
         1    5       2.64358456E-04  1.48348433E+01  2.99272239E+03  7.58635147E-07  3.00755724E+03
         1    7       5.49017413E-04  2.53201632E+02  4.70467300E+04  1.63446868E+02  4.74633785E+04
         1    9       9.62983039E-04  4.70527169E+04  2.53315238E+02  3.59518073E+04  8.32578394E+04
         1   11       3.58978835E-02  9.13159121E+04  3.35819952E+07  2.45237911E+05  3.39185490E+07
         1   13       6.86237389E-02  3.35826092E+07  9.13991358E+04  3.11663525E+07  6.48403608E+07
         1   15       3.35294353E-02  1.56959261E+05  3.16809302E+07  9.36780600E-03  3.18378895E+07
         1   17       3.17348264E-05  4.92312089E+02  9.92974444E+04  9.41174849E-04  9.97897574E+04
         2    6       2.64358456E-04  1.48348433E+01  2.99272239E+03  7.58635147E-07  3.00755724E+03
         2    8       5.49017413E-04  2.53201632E+02  4.70467300E+04  1.63446868E+02  4.74633785E+04
         2   10       9.62983039E-04  4.70527169E+04  2.53315238E+02  3.59518073E+04  8.32578394E+04
         2   12       3.58978835E-02  9.13159121E+04  3.35819952E+07  2.45237911E+05  3.39185490E+07
         2   14       6.86237389E-02  3.35826092E+07  9.13991358E+04  3.11663525E+07  6.48403608E+07
         2   16       3.35294353E-02  1.56959261E+05  3.16809302E+07  9.36780600E-03  3.18378895E+07
         2   18       3.17348264E-05  4.92312089E+02  9.92974444E+04  9.41174849E-04  9.97897574E+04
         3    5       2.64374731E-04  2.99275657E+03  1.48330393E+01  1.42142105E-04  3.00758975E+03
         3    7       9.62804134E-04  4.70513160E+04  2.53198769E+02  3.59298139E+04  8.32343287E+04
         3    9       5.49168296E-04  2.53221982E+02  4.70624915E+04  1.63548584E+02  4.74792621E+04
         3   11       6.86276843E-02  3.35852647E+07  9.13317859E+04  3.11667394E+07  6.48433358E+07
         3   13       3.58922576E-02  9.12531046E+04  3.35767624E+07  2.45233867E+05  3.39132494E+07
         3   15       3.35349321E-02  3.16858052E+07  1.57126916E+05  9.47005752E-03  3.18429321E+07
         3   17       3.17356716E-05  9.92998305E+04  4.92063684E+02  2.16339911E-01  9.97921105E+04
         4    6       2.64374731E-04  2.99275657E+03  1.48330393E+01  1.42142105E-04  3.00758975E+03
         4    8       9.62804134E-04  4.70513160E+04  2.53198769E+02  3.59298139E+04  8.32343287E+04
         4   10       5.49168296E-04  2.53221982E+02  4.70624915E+04  1.63548584E+02  4.74792621E+04
         4   12       6.86276843E-02  3.35852647E+07  9.13317859E+04  3.11667394E+07  6.48433358E+07
         4   14       3.58922576E-02  9.12531046E+04  3.35767624E+07  2.45233867E+05  3.39132494E+07
         4   16       3.35349321E-02  3.16858052E+07  1.57126916E+05  9.47005752E-03  3.18429321E+07
         4   18       3.17356716E-05  9.92998305E+04  4.92063684E+02  2.16339911E-01  9.97921105E+04
         5    7       3.10520042E-04  1.09008184E+04  9.45606641E-02  3.24308248E-04  1.09009133E+04
         5    9       3.10438865E-04  9.41991792E-02  1.08993071E+04  1.49944799E-07  1.08994013E+04
         5   11       2.41026378E-02  1.80439923E+07  5.96954482E+03  3.37819701E-03  1.80499619E+07
         5   13       2.41050312E-02  5.96899688E+03  1.80459077E+07  3.21041962E-02  1.80518767E+07
         5   15       9.28521104E-02  4.34818108E-02  9.46009185E-03  6.99226186E+07  6.99226187E+07
         5   17       2.62697747E-02  8.07119791E-02  3.18676486E-05  7.29664649E+07  7.29664649E+07
         6    8       3.10520042E-04  1.09008184E+04  9.45606641E-02  3.24308248E-04  1.09009133E+04
         6   10       3.10438865E-04  9.41991792E-02  1.08993071E+04  1.49944799E-07  1.08994013E+04
         6   12       2.41026378E-02  1.80439923E+07  5.96954482E+03  3.37819701E-03  1.80499619E+07
         6   14       2.41050312E-02  5.96899688E+03  1.80459077E+07  3.21041962E-02  1.80518767E+07
         6   16       9.28521104E-02  4.34818108E-02  9.46009185E-03  6.99226186E+07  6.99226187E+07
         6   18       2.62697747E-02  8.07119791E-02  3.18676486E-05  7.29664649E+07  7.29664649E+07
         7   11       6.44818964E-02  1.38962765E+07  3.22745223E+03  1.57429995E+07  2.96425034E+07
         7   13       3.02339232E-02  3.22030711E+03  1.38884865E+07  7.03042716E+03  1.38987372E+07
         7   15       3.55347001E-02  1.64515254E+07  1.40581361E+02  1.39989016E-01  1.64516661E+07
         7   17       1.84698307E-02  4.04146391E+07  3.49901973E+02  7.32703306E-04  4.04149890E+07
         8   12       6.44818964E-02  1.38962765E+07  3.22745223E+03  1.57429995E+07  2.96425034E+07
         8   14       3.02339232E-02  3.22030711E+03  1.38884865E+07  7.03042716E+03  1.38987372E+07
         8   16       3.55347001E-02  1.64515254E+07  1.40581361E+02  1.39989016E-01  1.64516661E+07
         8   18       1.84698307E-02  4.04146391E+07  3.49901973E+02  7.32703306E-04  4.04149890E+07
         9   11       3.02398671E-02  3.22796242E+03  1.38906200E+07  7.02979326E+03  1.39008778E+07
         9   13       6.44767557E-02  1.38924295E+07  3.23802543E+03  1.57437240E+07  2.96393916E+07
         9   15       3.55360192E-02  1.44327338E+02  1.64515764E+07  7.96756106E-03  1.64517208E+07
         9   17       1.84696339E-02  3.49960448E+02  4.04135800E+07  2.00955796E-05  4.04139299E+07
        10   12       3.02398671E-02  3.22796242E+03  1.38906200E+07  7.02979326E+03  1.39008778E+07
        10   14       6.44767557E-02  1.38924295E+07  3.23802543E+03  1.57437240E+07  2.96393916E+07
        10   16       3.55360192E-02  1.44327338E+02  1.64515764E+07  7.96756106E-03  1.64517208E+07
        10   18       1.84696339E-02  3.49960448E+02  4.04135800E+07  2.00955796E-05  4.04139299E+07
        11   13       4.72108106E-05  5.91544800E-13  4.06988575E-07  6.47555737E-17  4.06989166E-07
        11   15       1.49932948E-03  8.69514090E+00  2.87391626E-03  2.19114135E-04  8.69823393E+00
        11   17       1.82464296E-01  1.17097784E+08  3.87451396E+04  8.03150598E-01  1.17136530E+08
        12   14       4.72108106E-05  5.91544800E-13  4.06988575E-07  6.47555737E-17  4.06989166E-07
        12   16       1.49932948E-03  8.69514090E+00  2.87391626E-03  2.19114135E-04  8.69823393E+00
        12   18       1.82464296E-01  1.17097784E+08  3.87451396E+04  8.03150598E-01  1.17136530E+08
        13   15       1.49885110E-03  2.87098393E-03  8.67140100E+00  4.58090599E-08  8.67427203E+00
        13   17       1.82504309E-01  3.87349905E+04  1.17122623E+08  2.45492304E-02  1.17161358E+08
        14   16       1.49885110E-03  2.87098393E-03  8.67140100E+00  4.58090599E-08  8.67427203E+00
        14   18       1.82504309E-01  3.87349905E+04  1.17122623E+08  2.45492304E-02  1.17161358E+08
        15   17       1.05351532E-01  1.86720080E-01  5.13173918E-02  6.72264651E+07  6.72264653E+07
        16   18       1.05351532E-01  1.86720080E-01  5.13173918E-02  6.72264651E+07  6.72264653E+07
     -----------------------------------------------------------------------------------------------
--

++ Length and velocity gauge comparison (SO states):

 --------------------------------------------------
 A comparison between the dipole oscillator strengths in 
 length and velocity gauge will be performed

 All dipole oscillator differences above the tolerance of   0.10000000000000001       will be printed 

 Due to basis set deficiency these oscillator may be problematic 

 The tolerance is defined as ABS(1-O_l/O_v) 
 O_l : dipole oscillator strength in length gauge
 O_p : dipole oscillator strength in velocity gauge
 --------------------------------------------------

  Problematic transitions have been found

      From   To       Difference (%) Osc. st. (len.) Osc. st. (vel.)
     ---------------------------------------------------------------
         1    5            60.036117  1.05647905E-04  2.64358456E-04
         1    7            45.639149  7.99584289E-04  5.49017413E-04
         1    9            90.855183  1.83790304E-03  9.62983039E-04
         1   17            51.664494  4.81304639E-05  3.17348264E-05
         2    6            60.036117  1.05647905E-04  2.64358456E-04
         2    8            45.639149  7.99584289E-04  5.49017413E-04
         2   10            90.855183  1.83790304E-03  9.62983039E-04
         2   18            51.664494  4.81304639E-05  3.17348264E-05
         3    5            60.044137  1.05633205E-04  2.64374731E-04
         3    7            90.882502  1.83782462E-03  9.62804134E-04
         3    9            45.602743  7.99604104E-04  5.49168296E-04
         3   17            51.711106  4.81465382E-05  3.17356716E-05
         4    6            60.044137  1.05633205E-04  2.64374731E-04
         4    8            90.882502  1.83782462E-03  9.62804134E-04
         4   10            45.602743  7.99604104E-04  5.49168296E-04
         4   18            51.711106  4.81465382E-05  3.17356716E-05
         5    7            35.462236  2.00402692E-04  3.10520042E-04
         5    9            35.427728  2.00457428E-04  3.10438865E-04
         5   17            27.454652  3.34820499E-02  2.62697747E-02
         6    8            35.462236  2.00402692E-04  3.10520042E-04
         6   10            35.427728  2.00457428E-04  3.10438865E-04
         6   18            27.454652  3.34820499E-02  2.62697747E-02
         7   11            10.358994  5.78022207E-02  6.44818964E-02
         7   13            10.326158  2.71119205E-02  3.02339232E-02
         7   17            18.568211  2.18993478E-02  1.84698307E-02
         8   12            10.358994  5.78022207E-02  6.44818964E-02
         8   14            10.326158  2.71119205E-02  3.02339232E-02
         8   18            18.568211  2.18993478E-02  1.84698307E-02
         9   11            10.335510  2.71144226E-02  3.02398671E-02
         9   13            10.359235  5.77974572E-02  6.44767557E-02
         9   17            18.566740  2.18988428E-02  1.84696339E-02
        10   12            10.335510  2.71144226E-02  3.02398671E-02
        10   14            10.359235  5.77974572E-02  6.44767557E-02
        10   18            18.566740  2.18988428E-02  1.84696339E-02
        11   13      --------------- below threshold  4.72108106E-05
        11   15      --------------- below threshold  1.49932948E-03
        11   17            23.474794  1.39631179E-01  1.82464296E-01
        12   14      --------------- below threshold  4.72108106E-05
        12   16      --------------- below threshold  1.49932948E-03
        12   18            23.474794  1.39631179E-01  1.82464296E-01
        13   15      --------------- below threshold  1.49885110E-03
        13   17            23.478342  1.39655323E-01  1.82504309E-01
        14   16      --------------- below threshold  1.49885110E-03
        14   18            23.478342  1.39655323E-01  1.82504309E-01
        15   17            39.751248  6.34729828E-02  1.05351532E-01
        16   18            39.751248  6.34729828E-02  1.05351532E-01
     ---------------------------------------------------------------

 Number of problematic transitions =                    46

--

 Electric-dipole - electric-octupole not included
++ I/O STATISTICS
 
  I. General I/O information
  - - - - - - - - - - - - - - - - - - - - - - - - - - - - - - - - - - - - - - - - - - -
  Unit  Name          Flsize      Write/Read            MBytes           Write/Read
                      (MBytes)       Calls              In/Out           Time, sec.
  - - - - - - - - - - - - - - - - - - - - - - - - - - - - - - - - - - - - - - - - - - -
   1  SCRATCH           0.00 .       9/      45 .      0.0/      0.0 .       0/       0
   2  ANNI              0.00 .       0/       0 .      0.0/      0.0 .       0/       0
   3  RUNFILE          15.28 .     322/   10733 .      2.3/     77.8 .       0/       0
   4  ONEINT            6.58 .       0/   28767 .      0.0/   3777.9 .       0/       0
   5  JOBIPH            7.71 .       0/      92 .      0.0/      0.9 .       0/       0
   6  ORDINT          771.03 .       1/    6169 .      0.0/   1542.0 .       0/       0
  - - - - - - - - - - - - - - - - - - - - - - - - - - - - - - - - - - - - - - - - - - -
   *  TOTAL           800.61 .     332/   45806 .      2.3/   5398.7 .       0/       0
  - - - - - - - - - - - - - - - - - - - - - - - - - - - - - - - - - - - - - - - - - - -
 
  II. I/O Access Patterns
  - - - - - - - - - - - - - - - - - - - -
  Unit  Name               % of random
                         Write/Read calls
  - - - - - - - - - - - - - - - - - - - -
   1  SCRATCH             88.9/ 100.0
   2  ANNI                 0.0/   0.0
   3  RUNFILE             28.6/  10.8
   4  ONEINT               0.0/  13.4
   5  JOBIPH               0.0/  76.1
   6  ORDINT             100.0/   0.0
  - - - - - - - - - - - - - - - - - - - -
--
--- Stop Module: rassi at Thu Jan  9 20:47:39 2025 /rc=_RC_ALL_IS_WELL_ ---
*** files: xmldump
    saved to directory /home4/s4752295/Internship/Initial_simulations/Point_charge_model/1_electron/active_space_9_non_rel/W/varying_bond_length
--- Module rassi spent 5 seconds ---

.##################.
.# Happy landing! #.
.##################.

    Timing: Wall=183.65 User=143.52 System=34.17

###############################################################################
Hbrk Cluster
Job 14549871 for user s4752295
Finished at: Thu Jan  9 20:47:39 CET 2025

Job details:
============

Job ID                         : 14549871
Name                           : W_no_c_light
User                           : s4752295
Partition                      : regularmedium
Nodes                          : node84
Number of Nodes                : 1
Cores                          : 1
Number of Tasks                : 1
State                          : RUNNING  
Submit                         : 2025-01-09T20:44:26
Start                          : 2025-01-09T20:44:29
End                            : --
Reserved walltime              : 15:00:00
Used walltime                  : 00:03:10
Used CPU time                  : -- 
% User (Computation)           : --
% System (I/O)                 : --
Total memory reserved          : 25000M
Maximum memory used            : --

Acknowledgements:
=================

Please see this page for information about acknowledging Hbrk in your publications:

https://wiki.hpc.rug.nl/habrok/introduction/scientific_output

################################################################################
