   This run of MOLCAS is using the pymolcas driver

                             OPE
                             OPE          NMOL  CASOP  ENMOLC A   SO
                 OPE        NMOLC        AS  OP EN  MO LC     AS  OP
                OPENM       OL CA        SO  PE NM  OL CA     SOP EN
                OP EN      MO   LC       AS  OP ENMOL  CASO   PENMOL
                OP  EN     MO   LC       AS  OP EN     MO     LC ASO
               OP   E  NMOL  C  AS       OP  EN MO     LC     AS  OP
               OP  E   NMO   LC AS        OPEN  MO     LCASOP EN   M
               O  PEN   MO  LCA  SO
            OPE   NMO   L   CAS    OP
        OPENMOL  CASOP     ENMOL   CASOPE
     OPENMOLCA   SOPENMOLCASOPEN   MOLCASOPE
    OPENMOLCAS   OP           EN   MOL    CAS
    OPENMOLCAS       OP  ENM        O     LCA
    OPENMOLCAS    OPEN  MOLCASO     P  E  NMO
    OPENMOLCAS     OP               E  N  MOL
    OPENMOLCA   SO           PENM   O  L  CAS    OPEN    MO    LCAS
    OPENMOLCA   SOP           ENM   O  L  CAS   OP  EN  MOLC  AS   O
    OPENMOLCA   SOPE           NM      O  LCA   S      OP  EN MO
    OPENMOLC                AS         O  PEN   M      OL  CA  SOPE
    OPENMO        LCASOPE  NMOL        C  ASO   P      ENMOLC     AS
    OPE     NMO      LCA  SO     P     E   NM   OL  CA SO  PE N   MO
          OPENMOLCA            SOPE   NMO        LCAS  O    P  ENMO
     OPENMOLCASOPENMOLCASOPENMOLCASOPENMOLCA
        OPENMOLCASOPENMOLCASOPENMOLCASOPE
            OPENMOLCASOPENMOLCASOPENM
               OPENMOLCASOPENMOLCA        version: o91e1abe7de707b ?
                   OPENMOLCASO
                       OPE                tag:

 OpenMolcas is free software; you can redistribute it and/or modify it
 under the terms of the GNU Lesser General Public License version 2.1.
 OpenMolcas is distributed in the hope that it will be useful, but it
 is provided "as is" and without any express or implied warranties.
 For more details see the full text of the license in the file
 LICENSE or in <http://www.gnu.org/licenses/>.

                 Copyright (C) The OpenMolcas Authors
           For the author list and the recommended citation,
                   consult the file CONTRIBUTORS.md

           *************************************************
           * pymolcas version py2.10                       *
           *   build 3068ae8b88c9345ec6cfef6fef7f1169      *
           *   (after the EMIL interpreter by V. Veryazov) *
           *************************************************

configuration info
------------------
Host name: login1 (Linux)
C Compiler ID: GNU
C flags: -std=gnu99
Fortran Compiler ID: GNU
Fortran flags: -fno-aggressive-loop-optimizations -cpp -fdefault-integer-8 -fmax-stack-var-size=1048576
Definitions: _MOLCAS_;_I8_;_LINUX_;_MKL_
Parallel: OFF (GA=OFF)


   ---------------------------------------------------------------------------------------------------------------------------------------------
  |
  |           Project: tungsten_so_cf
  |    Submitted from: /home4/s4752295/Internship/Initial_simulations/Point_charge_model/1_electron/active_space_9_non_rel/W/varying_bond_length
  |      Scratch area: /tmp/tungsten_so_cf
  |   Save outputs to: /home4/s4752295/Internship/Initial_simulations/Point_charge_model/1_electron/active_space_9_non_rel/W/varying_bond_length
  |            Molcas: /home4/s4752295/Internship/Molcas/recomp_try/OpenMolcas-master/build
  |
  | Scratch area is empty
  |
  |    MOLCAS_DRIVER = /home4/s4752295/Internship/Molcas/bin/pymolcas
  |    MOLCAS_NPROCS = 1
  |    MOLCAS_SOURCE = /home4/s4752295/Internship/Molcas/recomp_try/OpenMolcas-master
  | MOLCAS_STRUCTURE = 0
  |
   ---------------------------------------------------------------------------------------------------------------------------------------------

++ ---------   Input file   ---------

&SEWARD
AMFi

CLIG
$R

Basis Set
W.ANO-rcc.Roos.24s21p15d11f4g2h.11s10p9d8f4g2h.
Spherical d
W            0.0        0.0     0.0
End of Basis

Xfield

4
0.000000,  0.0000,  0.630       -1.0
0.545596,  0.0000, -0.315       -1.0
-0.272798,  0.4725, -0.315      -1.0
-0.272798, -0.4725, -0.315      -1.0

End of input

&SCF
Occupied
34
Iterations
   50  100
End of Input

&RASSCF
LumOrb
Symmetry
1
Spin
2
Nactel
1 0 0
CIRoot
9 9 1
inactive
34
ras2
9
End of Input

>>> COPY tungsten_so_cf.JobIph $SLURM_SUBMIT_DIR/tungsten_so_cf.doublet.JobIph

>>> COPY $SLURM_SUBMIT_DIR/tungsten_so_cf.doublet.JobIph ./JOB002

&RASSI
NROFJobIph
1 All
SpinOrbit
End of Input

EOF

-- ----------------------------------

--- Start Module: seward at Thu Jan  9 20:12:41 2025 ---

()()()()()()()()()()()()()()()()()()()()()()()()()()()()()()()()()()()()()()()()()()()()()()()()()()

                                              &SEWARD

                                   only a single process is used
                       available to each process: 4.1 GB of memory, 1 thread?
                                            pid: 1279161
()()()()()()()()()()()()()()()()()()()()()()()()()()()()()()()()()()()()()()()()()()()()()()()()()()

 The speed of LIGHT in this CALCULATION =   137.03599917700001     
               SEWARD will generate:
                  Multipole Moment integrals up to order  2
                  Kinetic Energy integrals
                  Nuclear Attraction integrals (point charge)
                  One-Electron Hamiltonian integrals
                  Velocity integrals
                  Relativistic Douglas-Kroll-Hess integrals:
                    - Parametrization         : EXP
                    - DKH order of Hamiltonian: 2
                    - DKH order of Properties : 0
                         - multipole moment operators
                         - electric potential operators
                         - contact operators
                  External field from     4 point(s) added to the one-electron Hamiltonian
                  Orbital angular momentum around ( 0.0000  0.0000  0.0000 )
                  Velocity quadrupole around ( 0.0000  0.0000  0.0000 )
                  Atomic mean-field integrals
                  Two-Electron Repulsion integrals

                   Integrals are discarded if absolute value <: 0.10E-13
                   Integral cutoff threshold is set to       <: 0.10E-15

++    Symmetry information:
      ---------------------

                    Character Table for C1 

                             E  
                    a        1  x, y, xy, Rz, z, xz, Ry, yz, Rx, I
--


++    Basis set information:
      ----------------------


      Basis set label: W.ANO-RCC.ROOS.24S21P15D11F4G2H.11S10P9D8F4G2H......

      Electronic valence basis set:
      ------------------
      Associated Effective Charge  74.000000 au
      Associated Actual Charge     74.000000 au
      Nuclear Model: Point charge

      Shell  nPrim  nBasis  Cartesian Spherical Contaminant
         s      24      11        X                  
         p      21      10        X                  
         d      15       9                 X         
         f      11       8                 X         
         g       4       4                 X         
         h       2       2                 X         
--


++    Molecular structure info:
      -------------------------

                    ************************************************ 
                    **** Cartesian Coordinates / Bohr, Angstrom **** 
                    ************************************************ 

     Center  Label                x              y              z                     x              y              z
        1      W                0.000000       0.000000       0.000000              0.000000       0.000000       0.000000
--


++    Operator info:
      --------------


  Net charge from external field:   -4.0000000000000000     
--


            Nuclear Potential Energy              0.00000000 au

                    Nuclear-External Field Potential Energy    -469.84127090 au
                    External Field Potential Energy               5.92389019 au 


            Total Nuclear Potential Energy           -469.84127090 au


      Basis set specifications :
      Symmetry species         a  
      Basis functions          200

 Sorry, Molden does not know how to handle
 functions with angular momentum larger than g
Note: The following floating-point exceptions are signalling: IEEE_UNDERFLOW_FLAG IEEE_DENORMAL
--- Stop Module: seward at Thu Jan  9 20:12:59 2025 /rc=_RC_ALL_IS_WELL_ ---
*** files: tungsten_so_cf.GssOrb xmldump
    saved to directory /home4/s4752295/Internship/Initial_simulations/Point_charge_model/1_electron/active_space_9_non_rel/W/varying_bond_length
--- Module seward spent 18 seconds ---

*** symbolic link created: INPORB -> tungsten_so_cf.GssOrb
--- Start Module: scf at Thu Jan  9 20:12:59 2025 ---

()()()()()()()()()()()()()()()()()()()()()()()()()()()()()()()()()()()()()()()()()()()()()()()()()()

                                                &SCF

                                   only a single process is used
                       available to each process: 4.1 GB of memory, 1 thread?
                                            pid: 1279211
()()()()()()()()()()()()()()()()()()()()()()()()()()()()()()()()()()()()()()()()()()()()()()()()()()

++    Input section:
      --------------

      Header of the integral files:
      
       Integrals generated by seward 4.2.0  , Thu Jan  9 20:12:41 2025


      Cartesian coordinates in Angstrom:
      -----------------------------------------------------
      No.  Label        X            Y            Z        
      -----------------------------------------------------
       1   W          0.00000000   0.00000000   0.00000000
      -----------------------------------------------------
      Nuclear repulsion energy = -469.84127090
--

++    Orbital specifications:
      -----------------------

      Symmetry species               1
                                     a
      Frozen orbitals                0
      Occupied orbitals             34
      Secondary orbitals           166
      Deleted orbitals               0
      Total number of orbitals     200
      Number of basis functions    200
--

      Molecular charge                           6.000

++    Optimization specifications:
      ----------------------------

      SCF Algorithm: Conventional
      Minimized density differences are used
      Number of density matrices in core                5
      Maximum number of NDDO SCF iterations            50
      Maximum number of HF SCF iterations             100
      Threshold for SCF energy change            0.10E-08
      Threshold for density matrix               0.10E-03
      Threshold for Fock matrix                  0.15E-03
      Threshold for linear dependence            0.10E-08
      Threshold at which DIIS is turned on       0.15E+00
      Threshold at which QNR/C2DIIS is turned on 0.75E-01
      Threshold for Norm(delta) (QNR/C2DIIS)     0.20E-04
      DIIS extrapolation of the SCF procedure
      All orbitals punched on: SCFORB
--

      Detected guessorb starting orbitals                                             


++ Convergence information
                                   SCF        iterations: Energy and convergence statistics

Iter     Tot. SCF        One-elec.       Two-elec.     Energy      Max Dij or  Max Fij      DNorm      TNorm      AccCon     Time
         Energy          Energy          Energy        Change      Delta Norm                                                in Sec.

 The total and one-electron energies are shifted by a value of     16000. a.u.

   1  -192.061667610 -5515.539985149  5793.319588443   0.00E+00    0.30E+00*   0.73E+00*    0.12E+02   0.15E+04   None         1.
   2   -89.418391313 -4097.913828969  4478.336708559   0.10E+03*   0.30E+00*   0.20E+00*    0.81E+01   0.13E+04   EDIIS        1.
   3  -192.547445369 -5145.618267159  5422.912092692  -0.10E+03*   0.10E+00*   0.30E+00*    0.38E+01   0.15E+04   EDIIS        1.
   4  -195.374532344 -5399.531596145  5673.998334704  -0.28E+01*   0.43E+00*   0.26E+00*    0.19E+01   0.15E+04   EDIIS        1.
   5  -195.327533923 -5266.640195429  5541.153932409   0.47E-01*   0.14E+00*   0.12E+00*    0.70E+00   0.15E+04   EDIIS        1.
   6  -195.742940939 -5334.468328339  5608.566658303  -0.42E+00*   0.11E+00*   0.34E-01*    0.28E+00   0.15E+04   c2DIIS       1.
   7  -195.768053545 -5335.610774592  5609.683991951  -0.25E-01*   0.21E-01*   0.83E-01*    0.68E-01   0.15E+04   c2DIIS       1.
   8  -195.786956178 -5329.897284384  5603.951599109  -0.19E-01*   0.23E-01*   0.12E-01*    0.89E-01   0.15E+04   QNRc2DIIS    1.
   9  -195.787214426 -5323.978102971  5598.032159447  -0.26E-03*   0.90E-02*   0.16E-01*    0.39E-01   0.15E+04   QNRc2DIIS    1.
  10  -195.788276986 -5327.171852380  5601.224846297  -0.11E-02*   0.59E-02*   0.19E-02*    0.11E-01   0.15E+04   QNRc2DIIS    1.
  11  -195.788309719 -5327.026797254  5601.079758439  -0.33E-04*   0.41E-02*   0.15E-02*    0.12E-01   0.15E+04   QNRc2DIIS    1.
  12  -195.788339917 -5327.061991247  5601.114922234  -0.30E-04*   0.11E-01*   0.82E-03*    0.39E-02   0.15E+04   QNRc2DIIS    1.
  13  -195.788366880 -5327.100221592  5601.153125615  -0.27E-04*   0.32E-02*   0.55E-03*    0.47E-02   0.15E+04   QNRc2DIIS    1.
  14  -195.788369663 -5327.115441295  5601.168342535  -0.28E-05*   0.15E-02*   0.28E-03*    0.68E-03   0.15E+04   QNRc2DIIS    1.
  15  -195.788371127 -5327.108713403  5601.161613180  -0.15E-05*   0.33E-03*   0.67E-04     0.40E-03   0.15E+04   QNRc2DIIS    1.
  16  -195.788371221 -5327.103520285  5601.156419967  -0.94E-07*   0.73E-04*   0.19E-04     0.24E-03   0.15E+04   QNRc2DIIS    1.
  17  -195.788371227 -5327.102342931  5601.155242606  -0.64E-08*   0.47E-04*   0.93E-05     0.98E-04   0.15E+04   QNRc2DIIS    1.
  18  -195.788371229 -5327.102046796  5601.154946470  -0.20E-08*   0.54E-04*   0.52E-05     0.12E-03   0.15E+04   QNRc2DIIS    1.
  19  -195.788371230 -5327.102277951  5601.155177623  -0.11E-08*   0.35E-04*   0.41E-05     0.23E-02   0.15E+04   QNRc2DIIS    1.
  20  -195.788371231 -5327.102373747  5601.155273419  -0.64E-09    0.15E-03*   0.35E-05     0.30E-01   0.15E+04   QNRc2DIIS    1.
  21  -195.788371232 -5327.102527510  5601.155427181  -0.12E-08*   0.31E-04*   0.51E-05     0.27E-01   0.15E+04   QNRc2DIIS    1.
  22  -195.788371232 -5327.102558781  5601.155458452  -0.19E-09    0.26E-04*   0.28E-05     0.28E-01   0.15E+04   QNRc2DIIS    1.
  23  -195.788371232 -5327.102454775  5601.155354446  -0.62E-10    0.23E-04*   0.19E-05     0.46E-01   0.15E+04   QNRc2DIIS    1.
  24  -195.788371233 -5327.102362869  5601.155262540  -0.60E-10    0.10E-05    0.18E-06     0.63E-01   0.15E+04   QNRc2DIIS    1.

       Convergence after 24 Macro Iterations
--

 *****************************************************************************************************************************
 *                                                                                                                           *
 *                                             SCF/KS-DFT Program, Final results                                             *
 *                                                                                                                           *
 *                                                                                                                           *
 *                                                                                                                           *
 *                                                       Final Results                                                       *
 *                                                                                                                           *
 *****************************************************************************************************************************

::    Total SCF energy                             -16195.7883712326
      One-electron energy                          -21327.1023628695
      Two-electron energy                            5601.1552625400
      Nuclear repulsion energy                       -469.8412709031
      Kinetic energy (interpolated)                 22573.9402440838
      Virial theorem                                    0.7174550918
      Total spin, S(S+1)                                0.0000000000
      Total spin, S                                     0.0000000000
      Max non-diagonal density matrix element           0.0000014334
      Max non-diagonal Fock matrix element              0.0000003112


      All orbitals with orbital energies smaller than  E(LUMO)+0.5 are printed

++    Molecular orbitals:
      -------------------

      Title: SCF orbitals

      Molecular orbitals for symmetry species 1: a  

          Some orbital energies have been scaled by powers of 10, the power is written right after the orbital index


          Orbital            1 (1)     2         3         4         5         6         7         8         9        10    
          Energy         -256.4176 -448.5496 -393.8902 -393.8824 -393.8824 -105.9852  -89.3869  -89.3832  -89.3832  -69.5422
          Occ. No.          2.0000    2.0000    2.0000    2.0000    2.0000    2.0000    2.0000    2.0000    2.0000    2.0000

        1 W      1s         1.0000   -0.0000   -0.0000   -0.0000   -0.0000    0.0000    0.0000    0.0000   -0.0000    0.0000
        2 W      2s         0.0000    1.0000   -0.0005   -0.0000   -0.0000   -0.0000   -0.0000   -0.0000    0.0000   -0.0000
        3 W      3s        -0.0000    0.0000    0.0000    0.0000    0.0000    1.0000   -0.0054   -0.0000    0.0000   -0.0000
        4 W      4s         0.0000   -0.0000   -0.0000   -0.0000   -0.0000   -0.0014    0.0005    0.0000   -0.0000    0.0000
        5 W      5s        -0.0000    0.0000    0.0000    0.0000    0.0000    0.0003   -0.0001   -0.0000    0.0000   -0.0000
        6 W      6s         0.0000   -0.0000   -0.0000   -0.0000   -0.0000   -0.0001    0.0000    0.0000   -0.0000    0.0000
        7 W      7s        -0.0000    0.0000    0.0000    0.0000    0.0000    0.0001   -0.0000   -0.0000    0.0000   -0.0000
        8 W      8s         0.0000   -0.0000   -0.0000   -0.0000   -0.0000   -0.0002    0.0001    0.0000   -0.0000    0.0000
        9 W      9s        -0.0000    0.0000    0.0000    0.0000    0.0000    0.0002   -0.0001   -0.0000    0.0000   -0.0000
       10 W     10s         0.0000   -0.0000   -0.0000   -0.0000   -0.0000   -0.0002    0.0001    0.0000   -0.0000   -0.0000
       11 W     11s        -0.0000    0.0000    0.0000    0.0000    0.0000    0.0001   -0.0001   -0.0000    0.0000    0.0000
       12 W      2px        0.0000    0.0000   -0.0000    0.9962    0.0875   -0.0000    0.0000   -0.0000    0.0000   -0.0000
       13 W      3px       -0.0000    0.0000   -0.0000   -0.0000   -0.0000    0.0000   -0.0000    0.9963   -0.0864   -0.0020
       14 W      4px        0.0000   -0.0000    0.0000   -0.0000   -0.0000    0.0000    0.0000   -0.0016    0.0001    0.0002
       15 W      5px       -0.0000    0.0000    0.0000    0.0000    0.0000   -0.0000   -0.0000    0.0004   -0.0000   -0.0000
       16 W      6px        0.0000   -0.0000   -0.0000   -0.0000   -0.0000    0.0000    0.0000   -0.0001    0.0000    0.0000
       17 W      7px       -0.0000    0.0000   -0.0000    0.0000    0.0000   -0.0000   -0.0000    0.0003   -0.0000   -0.0000
       18 W      8px        0.0000   -0.0000    0.0000   -0.0000   -0.0000    0.0000    0.0000   -0.0003    0.0000    0.0000
       19 W      9px       -0.0000    0.0000   -0.0000    0.0000    0.0000   -0.0000   -0.0000    0.0002   -0.0000   -0.0000
       20 W     10px        0.0000   -0.0000    0.0000   -0.0000   -0.0000    0.0000    0.0000   -0.0001    0.0000    0.0000
       21 W     11px       -0.0000    0.0000   -0.0000    0.0000    0.0000   -0.0000    0.0000    0.0000   -0.0000   -0.0000
       22 W      2py       -0.0000   -0.0000    0.0000    0.0875   -0.9962    0.0000   -0.0000   -0.0000   -0.0000   -0.0000
       23 W      3py        0.0000   -0.0000    0.0000   -0.0000    0.0000   -0.0000    0.0000    0.0864    0.9963   -0.0003
       24 W      4py       -0.0000    0.0000   -0.0000   -0.0000    0.0000   -0.0000   -0.0000   -0.0001   -0.0016    0.0000
       25 W      5py        0.0000   -0.0000    0.0000    0.0000   -0.0000    0.0000    0.0000    0.0000    0.0004   -0.0000
       26 W      6py       -0.0000    0.0000    0.0000   -0.0000    0.0000   -0.0000   -0.0000   -0.0000   -0.0001    0.0000
       27 W      7py        0.0000   -0.0000    0.0000    0.0000   -0.0000    0.0000    0.0000    0.0000    0.0003   -0.0000
       28 W      8py       -0.0000    0.0000   -0.0000   -0.0000    0.0000   -0.0000   -0.0000   -0.0000   -0.0003    0.0000
       29 W      9py        0.0000   -0.0000    0.0000    0.0000   -0.0000    0.0000    0.0000    0.0000    0.0002   -0.0000
       30 W     10py       -0.0000    0.0000   -0.0000   -0.0000    0.0000   -0.0000   -0.0000   -0.0000   -0.0001    0.0000
       31 W     11py        0.0000   -0.0000    0.0000    0.0000   -0.0000    0.0000   -0.0000    0.0000    0.0000   -0.0000
       32 W      2pz        0.0000    0.0005    1.0000    0.0000    0.0000   -0.0000   -0.0000   -0.0000    0.0000    0.0000
       33 W      3pz       -0.0000    0.0000    0.0000    0.0000   -0.0000    0.0054    1.0000    0.0000   -0.0000    0.0000
       34 W      4pz        0.0000   -0.0000   -0.0000   -0.0000   -0.0000    0.0003   -0.0021   -0.0000    0.0000    0.0000
       35 W      5pz       -0.0000    0.0000    0.0000    0.0000    0.0000   -0.0001    0.0004    0.0000   -0.0000   -0.0000
       36 W      6pz        0.0000   -0.0000   -0.0000   -0.0000   -0.0000    0.0000   -0.0001   -0.0000    0.0000    0.0000
       37 W      7pz       -0.0000    0.0000    0.0000    0.0000    0.0000   -0.0001    0.0004    0.0000   -0.0000   -0.0000
       38 W      8pz        0.0000   -0.0000   -0.0000   -0.0000   -0.0000    0.0001   -0.0003   -0.0000    0.0000    0.0000
       39 W      9pz       -0.0000    0.0000    0.0000    0.0000    0.0000   -0.0001    0.0002    0.0000   -0.0000    0.0000
       40 W     10pz        0.0000   -0.0000   -0.0000   -0.0000   -0.0000    0.0001   -0.0001   -0.0000    0.0000   -0.0000
       41 W     11pz       -0.0000    0.0000    0.0000    0.0000    0.0000   -0.0001   -0.0000   -0.0000    0.0000    0.0000
       42 W      3d2-       0.0000    0.0000    0.0000    0.0000   -0.0000    0.0000    0.0000    0.0001    0.0015   -0.1167
       43 W      4d2-      -0.0000   -0.0000   -0.0000   -0.0000    0.0000    0.0000    0.0000    0.0000    0.0005    0.0001
       44 W      5d2-       0.0000    0.0000    0.0000    0.0000   -0.0000   -0.0000   -0.0000   -0.0000   -0.0001   -0.0000
       45 W      6d2-      -0.0000   -0.0000   -0.0000   -0.0000    0.0000    0.0000    0.0000    0.0000    0.0001    0.0000
       46 W      7d2-       0.0000    0.0000    0.0000    0.0000   -0.0000   -0.0000   -0.0000   -0.0000   -0.0001   -0.0000
       47 W      8d2-      -0.0000   -0.0000   -0.0000   -0.0000    0.0000    0.0000    0.0000    0.0000    0.0001    0.0000
       48 W      9d2-       0.0000    0.0000    0.0000    0.0000   -0.0000   -0.0000   -0.0000   -0.0000   -0.0001   -0.0000
       49 W     10d2-      -0.0000   -0.0000   -0.0000    0.0000   -0.0000    0.0000    0.0000    0.0000    0.0000    0.0000
       50 W     11d2-       0.0000    0.0000    0.0000   -0.0000    0.0000   -0.0000   -0.0000   -0.0000   -0.0000    0.0000
       51 W      3d1-       0.0000    0.0000    0.0000    0.0000   -0.0001    0.0000    0.0000    0.0004    0.0045    0.1141
       52 W      4d1-      -0.0000   -0.0000   -0.0000   -0.0000    0.0000    0.0000    0.0000    0.0001    0.0008   -0.0002
       53 W      5d1-       0.0000    0.0000    0.0000    0.0000   -0.0000   -0.0000   -0.0000   -0.0000   -0.0001    0.0000
       54 W      6d1-      -0.0000   -0.0000   -0.0000   -0.0000    0.0000    0.0000    0.0000    0.0000    0.0002   -0.0000
       55 W      7d1-       0.0000    0.0000    0.0000    0.0000   -0.0000   -0.0000   -0.0000   -0.0000   -0.0002    0.0000
       56 W      8d1-      -0.0000   -0.0000   -0.0000   -0.0000    0.0000    0.0000    0.0000    0.0000    0.0002   -0.0000
       57 W      9d1-       0.0000    0.0000    0.0000    0.0000   -0.0000   -0.0000   -0.0000   -0.0000   -0.0002    0.0000
       58 W     10d1-      -0.0000   -0.0000   -0.0000   -0.0000    0.0000    0.0000    0.0000    0.0000    0.0002   -0.0000
       59 W     11d1-       0.0000    0.0000    0.0000    0.0000   -0.0000   -0.0000   -0.0000   -0.0000   -0.0001   -0.0000
       60 W      3d0        0.0000    0.0000    0.0000    0.0000    0.0000    0.0002    0.0013    0.0000   -0.0000   -0.0000
       61 W      4d0       -0.0000   -0.0000   -0.0000   -0.0000   -0.0000   -0.0002   -0.0004   -0.0000    0.0000    0.0000
       62 W      5d0        0.0000    0.0000    0.0000    0.0000    0.0000    0.0000    0.0000    0.0000   -0.0000   -0.0000
       63 W      6d0       -0.0000   -0.0000   -0.0000   -0.0000   -0.0000   -0.0000   -0.0001   -0.0000    0.0000    0.0000
       64 W      7d0        0.0000    0.0000    0.0000    0.0000    0.0000    0.0000    0.0000    0.0000   -0.0000   -0.0000
       65 W      8d0       -0.0000   -0.0000   -0.0000   -0.0000   -0.0000   -0.0000   -0.0000   -0.0000    0.0000    0.0000
       66 W      9d0        0.0000    0.0000    0.0000    0.0000    0.0000    0.0000   -0.0000   -0.0000    0.0000   -0.0000
       67 W     10d0       -0.0000   -0.0000   -0.0000   -0.0000   -0.0000    0.0000    0.0001    0.0000   -0.0000    0.0000
       68 W     11d0        0.0000    0.0000    0.0000    0.0000    0.0000   -0.0000   -0.0001   -0.0000    0.0000    0.0000
       69 W      3d1+      -0.0000   -0.0000   -0.0000    0.0001    0.0000   -0.0000   -0.0000    0.0045   -0.0004    0.6896
       70 W      4d1+       0.0000    0.0000    0.0000   -0.0000   -0.0000   -0.0000   -0.0000    0.0008   -0.0001   -0.0011
       71 W      5d1+      -0.0000   -0.0000   -0.0000    0.0000    0.0000    0.0000    0.0000   -0.0001    0.0000    0.0002
       72 W      6d1+       0.0000    0.0000    0.0000   -0.0000   -0.0000   -0.0000   -0.0000    0.0002   -0.0000   -0.0002
       73 W      7d1+      -0.0000   -0.0000   -0.0000    0.0000    0.0000    0.0000    0.0000   -0.0002    0.0000    0.0003
       74 W      8d1+       0.0000    0.0000    0.0000   -0.0000   -0.0000   -0.0000   -0.0000    0.0002   -0.0000   -0.0003
       75 W      9d1+      -0.0000   -0.0000   -0.0000    0.0000    0.0000    0.0000    0.0000   -0.0002    0.0000    0.0002
       76 W     10d1+       0.0000    0.0000    0.0000   -0.0000   -0.0000   -0.0000   -0.0000    0.0002   -0.0000   -0.0001
       77 W     11d1+      -0.0000   -0.0000   -0.0000    0.0000    0.0000    0.0000    0.0000   -0.0001    0.0000   -0.0000
       78 W      3d2+       0.0000    0.0000    0.0000   -0.0000   -0.0000    0.0000    0.0000   -0.0015    0.0001    0.7056
       79 W      4d2+      -0.0000   -0.0000   -0.0000    0.0000    0.0000    0.0000    0.0000   -0.0005    0.0000   -0.0009
       80 W      5d2+       0.0000    0.0000    0.0000   -0.0000   -0.0000   -0.0000   -0.0000    0.0001   -0.0000    0.0002
       81 W      6d2+      -0.0000   -0.0000   -0.0000    0.0000    0.0000    0.0000    0.0000   -0.0001    0.0000   -0.0002
       82 W      7d2+       0.0000    0.0000    0.0000   -0.0000   -0.0000   -0.0000   -0.0000    0.0001   -0.0000    0.0002
       83 W      8d2+      -0.0000   -0.0000   -0.0000    0.0000    0.0000    0.0000    0.0000   -0.0001    0.0000   -0.0002
       84 W      9d2+       0.0000    0.0000    0.0000   -0.0000   -0.0000   -0.0000   -0.0000    0.0001   -0.0000    0.0002
       85 W     10d2+      -0.0000   -0.0000   -0.0000   -0.0000   -0.0000    0.0000    0.0000   -0.0000    0.0000   -0.0001
       86 W     11d2+       0.0000    0.0000    0.0000    0.0000    0.0000   -0.0000   -0.0000    0.0000   -0.0000   -0.0000
       87 W      4f3-      -0.0000   -0.0000    0.0000    0.0000   -0.0000   -0.0000    0.0000    0.0000    0.0000   -0.0000
       88 W      5f3-      -0.0000    0.0000   -0.0000   -0.0000    0.0000    0.0000    0.0000   -0.0000   -0.0000    0.0000
       89 W      6f3-      -0.0000   -0.0000    0.0000    0.0000   -0.0000   -0.0000   -0.0000    0.0000    0.0000   -0.0000
       90 W      7f3-       0.0000    0.0000   -0.0000   -0.0000    0.0000    0.0000    0.0000   -0.0000   -0.0000    0.0000
       91 W      8f3-       0.0000   -0.0000   -0.0000    0.0000   -0.0000   -0.0000   -0.0000    0.0000    0.0000   -0.0000
       92 W      9f3-      -0.0000   -0.0000    0.0000   -0.0000    0.0000    0.0000    0.0000   -0.0000   -0.0000    0.0000
       93 W     10f3-       0.0000    0.0000   -0.0000    0.0000   -0.0000   -0.0000   -0.0000    0.0000    0.0000   -0.0000
       94 W     11f3-      -0.0000   -0.0000    0.0000   -0.0000    0.0000   -0.0000    0.0000   -0.0000   -0.0000    0.0000
       95 W      4f2-      -0.0000   -0.0000    0.0000   -0.0000    0.0000   -0.0000   -0.0000   -0.0000   -0.0004   -0.0001
       96 W      5f2-       0.0000    0.0000   -0.0000    0.0000   -0.0000    0.0000    0.0000    0.0000    0.0002    0.0001
       97 W      6f2-      -0.0000   -0.0000    0.0000   -0.0000    0.0000   -0.0000   -0.0000   -0.0000   -0.0001   -0.0000
       98 W      7f2-       0.0000    0.0000   -0.0000    0.0000   -0.0000    0.0000   -0.0000    0.0000    0.0000    0.0000
       99 W      8f2-      -0.0000   -0.0000    0.0000   -0.0000    0.0000   -0.0000    0.0000    0.0000    0.0000   -0.0000
      100 W      9f2-       0.0000    0.0000   -0.0000   -0.0000    0.0000    0.0000   -0.0000   -0.0000   -0.0001    0.0000
      101 W     10f2-      -0.0000   -0.0000    0.0000    0.0000   -0.0000   -0.0000    0.0000    0.0000    0.0001   -0.0000
      102 W     11f2-       0.0000    0.0000   -0.0000   -0.0000    0.0000   -0.0000   -0.0000    0.0000    0.0000    0.0000
      103 W      4f1-       0.0000    0.0000    0.0000    0.0000   -0.0000    0.0000   -0.0000   -0.0000   -0.0000    0.0001
      104 W      5f1-      -0.0000   -0.0000   -0.0000   -0.0000    0.0000   -0.0000   -0.0000    0.0000    0.0000   -0.0000
      105 W      6f1-       0.0000    0.0000    0.0000    0.0000   -0.0000    0.0000    0.0000   -0.0000   -0.0000    0.0000
      106 W      7f1-      -0.0000   -0.0000   -0.0000   -0.0000    0.0000   -0.0000   -0.0000   -0.0000   -0.0000   -0.0000
      107 W      8f1-       0.0000    0.0000    0.0000    0.0000   -0.0000    0.0000    0.0000    0.0000    0.0000    0.0000
      108 W      9f1-      -0.0000   -0.0000   -0.0000   -0.0000    0.0000   -0.0000   -0.0000   -0.0000   -0.0000   -0.0000
      109 W     10f1-       0.0000    0.0000    0.0000    0.0000   -0.0000    0.0000    0.0000    0.0000    0.0000    0.0000
      110 W     11f1-      -0.0000   -0.0000   -0.0000   -0.0000    0.0000    0.0000   -0.0000   -0.0000   -0.0000   -0.0000
      111 W      4f0       -0.0000   -0.0000   -0.0000    0.0000    0.0000   -0.0007   -0.0002   -0.0000    0.0000   -0.0000
      112 W      5f0        0.0000    0.0000   -0.0000   -0.0000   -0.0000    0.0004    0.0001    0.0000   -0.0000    0.0000
      113 W      6f0       -0.0000   -0.0000    0.0000    0.0000    0.0000   -0.0003    0.0000    0.0000   -0.0000   -0.0000
      114 W      7f0        0.0000    0.0000   -0.0000   -0.0000   -0.0000    0.0002   -0.0001   -0.0000    0.0000    0.0000
      115 W      8f0       -0.0000   -0.0000    0.0000    0.0000    0.0000   -0.0001    0.0001    0.0000   -0.0000   -0.0000
      116 W      9f0        0.0000    0.0000   -0.0000   -0.0000   -0.0000   -0.0000   -0.0001   -0.0000    0.0000    0.0000
      117 W     10f0       -0.0000   -0.0000    0.0000    0.0000    0.0000    0.0000    0.0001    0.0000   -0.0000   -0.0000
      118 W     11f0        0.0000    0.0000   -0.0000   -0.0000   -0.0000   -0.0000   -0.0000   -0.0000    0.0000    0.0000
      119 W      4f1+      -0.0000   -0.0000   -0.0000    0.0000    0.0000   -0.0000    0.0000   -0.0000    0.0000    0.0005
      120 W      5f1+       0.0000    0.0000    0.0000   -0.0000   -0.0000    0.0000    0.0000    0.0000   -0.0000   -0.0003
      121 W      6f1+      -0.0000   -0.0000   -0.0000    0.0000    0.0000   -0.0000   -0.0000   -0.0000    0.0000    0.0003
      122 W      7f1+       0.0000    0.0000    0.0000   -0.0000   -0.0000    0.0000    0.0000   -0.0000    0.0000   -0.0002
      123 W      8f1+      -0.0000   -0.0000   -0.0000    0.0000    0.0000   -0.0000   -0.0000    0.0000   -0.0000    0.0001
      124 W      9f1+       0.0000    0.0000    0.0000   -0.0000   -0.0000    0.0000    0.0000   -0.0000    0.0000   -0.0001
      125 W     10f1+      -0.0000   -0.0000   -0.0000    0.0000    0.0000   -0.0000   -0.0000    0.0000   -0.0000    0.0001
      126 W     11f1+       0.0000    0.0000    0.0000   -0.0000   -0.0000   -0.0000    0.0000   -0.0000    0.0000   -0.0000
      127 W      4f2+      -0.0000   -0.0000    0.0000    0.0000    0.0000   -0.0000   -0.0000    0.0004   -0.0000    0.0005
      128 W      5f2+       0.0000    0.0000   -0.0000   -0.0000   -0.0000    0.0000    0.0000   -0.0002    0.0000   -0.0003
      129 W      6f2+      -0.0000   -0.0000    0.0000    0.0000    0.0000   -0.0000   -0.0000    0.0001   -0.0000    0.0003
      130 W      7f2+       0.0000    0.0000   -0.0000   -0.0000   -0.0000    0.0000   -0.0000   -0.0000    0.0000   -0.0002
      131 W      8f2+      -0.0000   -0.0000    0.0000    0.0000    0.0000   -0.0000    0.0000   -0.0000    0.0000    0.0001
      132 W      9f2+       0.0000    0.0000   -0.0000    0.0000    0.0000    0.0000   -0.0000    0.0001   -0.0000   -0.0001
      133 W     10f2+      -0.0000   -0.0000    0.0000   -0.0000   -0.0000   -0.0000    0.0000   -0.0001    0.0000    0.0001
      134 W     11f2+      -0.0000    0.0000   -0.0000    0.0000    0.0000   -0.0000   -0.0000   -0.0000    0.0000   -0.0000
      135 W      4f3+      -0.0000   -0.0000    0.0000    0.0000    0.0000   -0.0005    0.0003    0.0000   -0.0000   -0.0000
      136 W      5f3+       0.0000    0.0000   -0.0000   -0.0000   -0.0000    0.0003   -0.0001   -0.0000    0.0000    0.0000
      137 W      6f3+      -0.0000   -0.0000    0.0000    0.0000    0.0000   -0.0002    0.0001    0.0000   -0.0000   -0.0000
      138 W      7f3+       0.0000    0.0000   -0.0000   -0.0000   -0.0000    0.0001   -0.0000   -0.0000    0.0000    0.0000
      139 W      8f3+      -0.0000   -0.0000    0.0000    0.0000    0.0000   -0.0001   -0.0000   -0.0000    0.0000   -0.0000
      140 W      9f3+       0.0000    0.0000    0.0000   -0.0000   -0.0000    0.0000    0.0001    0.0000   -0.0000   -0.0000
      141 W     10f3+      -0.0000   -0.0000   -0.0000    0.0000    0.0000    0.0000   -0.0000   -0.0000    0.0000    0.0000
      142 W     11f3+       0.0000    0.0000    0.0000   -0.0000   -0.0000   -0.0000   -0.0000   -0.0000    0.0000   -0.0000
      143 W      5g4-       0.0000   -0.0000    0.0000   -0.0000    0.0000   -0.0000   -0.0000   -0.0000   -0.0002    0.0000
      144 W      6g4-      -0.0000    0.0000   -0.0000    0.0000   -0.0000    0.0000    0.0000    0.0000    0.0001   -0.0000
      145 W      7g4-       0.0000   -0.0000    0.0000   -0.0000    0.0000    0.0000   -0.0000   -0.0000   -0.0001    0.0000
      146 W      8g4-      -0.0000    0.0000   -0.0000    0.0000   -0.0000   -0.0000    0.0000    0.0000    0.0001   -0.0000
      147 W      5g3-      -0.0000    0.0000   -0.0000    0.0000   -0.0000    0.0000    0.0000   -0.0000   -0.0000    0.0000
      148 W      6g3-       0.0000   -0.0000    0.0000   -0.0000    0.0000   -0.0000   -0.0000    0.0000    0.0000   -0.0000
      149 W      7g3-       0.0000    0.0000   -0.0000    0.0000   -0.0000   -0.0000    0.0000   -0.0000   -0.0000    0.0000
      150 W      8g3-      -0.0000   -0.0000    0.0000   -0.0000    0.0000    0.0000   -0.0000    0.0000    0.0000   -0.0000
      151 W      5g2-       0.0000   -0.0000   -0.0000    0.0000   -0.0000   -0.0000    0.0000    0.0000    0.0000    0.0000
      152 W      6g2-      -0.0000    0.0000    0.0000    0.0000   -0.0000    0.0000   -0.0000   -0.0000   -0.0000   -0.0000
      153 W      7g2-       0.0000   -0.0000   -0.0000    0.0000   -0.0000   -0.0000    0.0000    0.0000    0.0000    0.0000
      154 W      8g2-      -0.0000    0.0000    0.0000   -0.0000    0.0000   -0.0000   -0.0000   -0.0000   -0.0000   -0.0000
      155 W      5g1-       0.0000    0.0000    0.0000   -0.0000    0.0000    0.0000   -0.0000   -0.0000   -0.0002   -0.0000
      156 W      6g1-      -0.0000   -0.0000   -0.0000    0.0000   -0.0000   -0.0000    0.0000    0.0000    0.0002    0.0000
      157 W      7g1-       0.0000    0.0000    0.0000   -0.0000    0.0000    0.0000   -0.0000   -0.0000   -0.0001   -0.0000
      158 W      8g1-      -0.0000   -0.0000   -0.0000    0.0000   -0.0000    0.0000    0.0000    0.0000    0.0001    0.0000
      159 W      5g0        0.0000   -0.0000    0.0000   -0.0000   -0.0000   -0.0000   -0.0003   -0.0000    0.0000    0.0000
      160 W      6g0       -0.0000    0.0000    0.0000    0.0000    0.0000    0.0000    0.0003    0.0000   -0.0000   -0.0000
      161 W      7g0        0.0000   -0.0000   -0.0000   -0.0000   -0.0000   -0.0000   -0.0002   -0.0000    0.0000    0.0000
      162 W      8g0       -0.0000    0.0000    0.0000    0.0000    0.0000    0.0000    0.0001    0.0000   -0.0000   -0.0000
      163 W      5g1+      -0.0000   -0.0000   -0.0000   -0.0000   -0.0000   -0.0000    0.0000   -0.0002    0.0000   -0.0000
      164 W      6g1+       0.0000    0.0000    0.0000    0.0000    0.0000    0.0000   -0.0000    0.0002   -0.0000    0.0000
      165 W      7g1+      -0.0000   -0.0000   -0.0000   -0.0000   -0.0000   -0.0000    0.0000   -0.0001    0.0000   -0.0000
      166 W      8g1+       0.0000    0.0000    0.0000    0.0000    0.0000   -0.0000   -0.0000    0.0001   -0.0000    0.0000
      167 W      5g2+       0.0000   -0.0000   -0.0000   -0.0000   -0.0000   -0.0000    0.0000   -0.0000    0.0000   -0.0000
      168 W      6g2+      -0.0000    0.0000    0.0000   -0.0000   -0.0000    0.0000   -0.0000    0.0000   -0.0000    0.0000
      169 W      7g2+       0.0000   -0.0000   -0.0000   -0.0000   -0.0000   -0.0000    0.0000   -0.0000    0.0000   -0.0000
      170 W      8g2+      -0.0000    0.0000    0.0000    0.0000    0.0000   -0.0000   -0.0000    0.0000   -0.0000    0.0000
      171 W      5g3+      -0.0000    0.0000   -0.0000   -0.0000   -0.0000    0.0002   -0.0002   -0.0000    0.0000    0.0000
      172 W      6g3+       0.0000   -0.0000    0.0000    0.0000    0.0000   -0.0001    0.0002    0.0000   -0.0000   -0.0000
      173 W      7g3+      -0.0000    0.0000   -0.0000   -0.0000   -0.0000    0.0001   -0.0001   -0.0000    0.0000    0.0000
      174 W      8g3+       0.0000   -0.0000    0.0000    0.0000    0.0000   -0.0001    0.0001    0.0000   -0.0000   -0.0000
      175 W      5g4+      -0.0000    0.0000   -0.0000   -0.0000   -0.0000    0.0000    0.0000   -0.0002    0.0000    0.0001
      176 W      6g4+       0.0000   -0.0000    0.0000    0.0000    0.0000    0.0000   -0.0000    0.0001   -0.0000   -0.0000
      177 W      7g4+      -0.0000    0.0000   -0.0000   -0.0000   -0.0000   -0.0000    0.0000   -0.0001    0.0000    0.0000
      178 W      8g4+       0.0000   -0.0000    0.0000    0.0000    0.0000    0.0000   -0.0000    0.0001   -0.0000   -0.0000
      179 W      6h5-       0.0000    0.0000    0.0000    0.0000   -0.0000   -0.0000    0.0000    0.0000    0.0000    0.0000
      180 W      7h5-      -0.0000   -0.0000   -0.0000   -0.0000    0.0000    0.0000   -0.0000   -0.0000   -0.0000   -0.0000
      181 W      6h4-      -0.0000    0.0000    0.0000    0.0000   -0.0000   -0.0000    0.0000    0.0000    0.0000   -0.0000
      182 W      7h4-       0.0000   -0.0000   -0.0000   -0.0000    0.0000    0.0000   -0.0000   -0.0000   -0.0001    0.0000
      183 W      6h3-       0.0000   -0.0000    0.0000   -0.0000    0.0000    0.0000   -0.0000   -0.0000   -0.0000    0.0000
      184 W      7h3-      -0.0000    0.0000    0.0000    0.0000   -0.0000   -0.0000   -0.0000    0.0000    0.0000   -0.0000
      185 W      6h2-       0.0000    0.0000    0.0000    0.0000   -0.0000   -0.0000    0.0000    0.0000    0.0000    0.0000
      186 W      7h2-      -0.0000   -0.0000   -0.0000   -0.0000    0.0000    0.0000   -0.0000   -0.0000   -0.0000   -0.0000
      187 W      6h1-      -0.0000    0.0000    0.0000    0.0000   -0.0000   -0.0000    0.0000    0.0000    0.0000   -0.0000
      188 W      7h1-      -0.0000   -0.0000   -0.0000   -0.0000    0.0000    0.0000   -0.0000   -0.0000   -0.0000    0.0000
      189 W      6h0       -0.0000    0.0000   -0.0000   -0.0000   -0.0000   -0.0000   -0.0001   -0.0000    0.0000    0.0000
      190 W      7h0        0.0000   -0.0000    0.0000    0.0000    0.0000    0.0000    0.0001    0.0000   -0.0000   -0.0000
      191 W      6h1+       0.0000   -0.0000   -0.0000    0.0000    0.0000    0.0000   -0.0000    0.0000   -0.0000   -0.0000
      192 W      7h1+       0.0000    0.0000    0.0000   -0.0000   -0.0000   -0.0000    0.0000   -0.0000    0.0000    0.0000
      193 W      6h2+      -0.0000    0.0000    0.0000   -0.0000   -0.0000   -0.0000    0.0000   -0.0000    0.0000   -0.0000
      194 W      7h2+      -0.0000   -0.0000   -0.0000    0.0000    0.0000    0.0000   -0.0000    0.0000   -0.0000    0.0000
      195 W      6h3+      -0.0000    0.0000   -0.0000   -0.0000   -0.0000   -0.0000    0.0000    0.0000   -0.0000    0.0000
      196 W      7h3+       0.0000   -0.0000    0.0000    0.0000    0.0000    0.0000   -0.0000   -0.0000    0.0000   -0.0000
      197 W      6h4+       0.0000   -0.0000   -0.0000    0.0000    0.0000    0.0000   -0.0000    0.0000   -0.0000   -0.0000
      198 W      7h4+      -0.0000    0.0000    0.0000   -0.0000   -0.0000   -0.0000    0.0000   -0.0001    0.0000    0.0000
      199 W      6h5+       0.0000    0.0000    0.0000   -0.0000   -0.0000   -0.0000    0.0000   -0.0000    0.0000   -0.0000
      200 W      7h5+      -0.0000   -0.0000   -0.0000    0.0000    0.0000    0.0000   -0.0000    0.0000   -0.0000    0.0000

          Orbital           11        12        13        14        15        16        17        18        19        20    
          Energy          -69.5422  -69.5076  -69.5076  -69.5064  -22.8615  -17.3186  -17.3186  -17.0967  -10.1212  -10.1212
          Occ. No.          2.0000    2.0000    2.0000    2.0000    2.0000    2.0000    2.0000    2.0000    2.0000    2.0000

        1 W      1s        -0.0000   -0.0000   -0.0000   -0.0000   -0.0000   -0.0000    0.0000   -0.0000    0.0000   -0.0000
        2 W      2s         0.0000   -0.0000   -0.0000   -0.0000    0.0000    0.0000   -0.0000    0.0000    0.0000   -0.0000
        3 W      3s         0.0000   -0.0000   -0.0000   -0.0002    0.0014   -0.0000    0.0000   -0.0003   -0.0000    0.0000
        4 W      4s        -0.0000   -0.0000   -0.0000   -0.0004    0.9988   -0.0000    0.0000   -0.0368   -0.0000    0.0000
        5 W      5s         0.0000    0.0000    0.0000    0.0000   -0.0044    0.0000    0.0000    0.0016    0.0000   -0.0000
        6 W      6s        -0.0000   -0.0000   -0.0000   -0.0000    0.0012    0.0000   -0.0000   -0.0004   -0.0000    0.0000
        7 W      7s         0.0000    0.0000    0.0000    0.0000   -0.0014   -0.0000    0.0000    0.0005    0.0000   -0.0000
        8 W      8s        -0.0000   -0.0000   -0.0000   -0.0000    0.0037    0.0000   -0.0000   -0.0012    0.0000   -0.0000
        9 W      9s         0.0000    0.0000    0.0000    0.0000   -0.0049   -0.0000    0.0000    0.0015   -0.0000    0.0000
       10 W     10s        -0.0000   -0.0000   -0.0000    0.0000    0.0051    0.0000   -0.0000   -0.0015    0.0000   -0.0000
       11 W     11s        -0.0000   -0.0000   -0.0000   -0.0000   -0.0034   -0.0000    0.0000    0.0009    0.0000   -0.0000
       12 W      2px        0.0000   -0.0001   -0.0000    0.0000    0.0000    0.0000   -0.0000    0.0000    0.0000   -0.0000
       13 W      3px        0.0003   -0.0042   -0.0003    0.0000   -0.0000    0.0016   -0.0001    0.0000   -0.0001    0.0000
       14 W      4px       -0.0000    0.0011    0.0001   -0.0000    0.0000    0.9938   -0.0849    0.0000   -0.0033    0.0004
       15 W      5px        0.0000   -0.0002   -0.0000    0.0000   -0.0000   -0.0010    0.0001    0.0000   -0.0005    0.0001
       16 W      6px       -0.0000    0.0001    0.0000   -0.0000    0.0000    0.0008   -0.0001   -0.0000    0.0002   -0.0000
       17 W      7px        0.0000   -0.0001   -0.0000    0.0000   -0.0000   -0.0035    0.0003   -0.0000   -0.0004    0.0000
       18 W      8px       -0.0000    0.0001    0.0000   -0.0000    0.0000    0.0043   -0.0004    0.0000    0.0003   -0.0000
       19 W      9px        0.0000   -0.0001   -0.0000    0.0000   -0.0000   -0.0047    0.0004   -0.0000   -0.0002    0.0000
       20 W     10px       -0.0000    0.0000    0.0000   -0.0000    0.0000    0.0036   -0.0003    0.0000    0.0001   -0.0000
       21 W     11px        0.0000   -0.0000   -0.0000    0.0000    0.0000   -0.0001    0.0000    0.0000    0.0001   -0.0000
       22 W      2py       -0.0000   -0.0000    0.0001   -0.0000   -0.0000    0.0000    0.0000   -0.0000    0.0000    0.0000
       23 W      3py       -0.0020   -0.0003    0.0042   -0.0000    0.0000    0.0001    0.0016   -0.0000   -0.0000   -0.0001
       24 W      4py        0.0002    0.0001   -0.0011    0.0000   -0.0000    0.0849    0.9938   -0.0000   -0.0004   -0.0033
       25 W      5py       -0.0000   -0.0000    0.0002   -0.0000    0.0000   -0.0001   -0.0010   -0.0000   -0.0001   -0.0005
       26 W      6py        0.0000    0.0000   -0.0001    0.0000   -0.0000    0.0001    0.0008    0.0000    0.0000    0.0002
       27 W      7py       -0.0000   -0.0000    0.0001   -0.0000    0.0000   -0.0003   -0.0035    0.0000   -0.0000   -0.0004
       28 W      8py        0.0000    0.0000   -0.0001    0.0000   -0.0000    0.0004    0.0043   -0.0000    0.0000    0.0003
       29 W      9py       -0.0000   -0.0000    0.0001   -0.0000    0.0000   -0.0004   -0.0047    0.0000   -0.0000   -0.0002
       30 W     10py        0.0000    0.0000   -0.0000    0.0000   -0.0000    0.0003    0.0036   -0.0000    0.0000    0.0001
       31 W     11py       -0.0000   -0.0000    0.0000   -0.0000   -0.0000   -0.0000   -0.0001    0.0000    0.0000    0.0001
       32 W      2pz       -0.0000   -0.0000   -0.0000   -0.0000    0.0000   -0.0000    0.0000    0.0000    0.0000   -0.0000
       33 W      3pz       -0.0000   -0.0000   -0.0000   -0.0013   -0.0004   -0.0000    0.0000    0.0021   -0.0000    0.0000
       34 W      4pz       -0.0000   -0.0000   -0.0000   -0.0007    0.0366   -0.0000    0.0000    0.9982   -0.0000    0.0000
       35 W      5pz        0.0000    0.0000    0.0000    0.0001   -0.0006    0.0000   -0.0000   -0.0025    0.0000   -0.0000
       36 W      6pz       -0.0000   -0.0000   -0.0000   -0.0000    0.0002   -0.0000    0.0000    0.0015   -0.0000    0.0000
       37 W      7pz        0.0000    0.0000    0.0000    0.0000   -0.0001    0.0000   -0.0000   -0.0056    0.0000   -0.0000
       38 W      8pz       -0.0000   -0.0000   -0.0000   -0.0000   -0.0002   -0.0000    0.0000    0.0065   -0.0000    0.0000
       39 W      9pz       -0.0000   -0.0000   -0.0000   -0.0000    0.0005    0.0000   -0.0000   -0.0068    0.0000   -0.0000
       40 W     10pz        0.0000    0.0000    0.0000    0.0000   -0.0005   -0.0000    0.0000    0.0051   -0.0000    0.0000
       41 W     11pz       -0.0000   -0.0000   -0.0000   -0.0000    0.0002    0.0000    0.0000    0.0000   -0.0000    0.0000
       42 W      3d2-      -0.7056    0.0565   -0.6966    0.0000   -0.0000   -0.0000   -0.0005   -0.0000   -0.0001   -0.0011
       43 W      4d2-       0.0009   -0.0001    0.0018   -0.0000    0.0000    0.0031    0.0368   -0.0000   -0.0877   -0.8075
       44 W      5d2-      -0.0002    0.0000   -0.0002    0.0000   -0.0000   -0.0001   -0.0008    0.0000   -0.0003   -0.0027
       45 W      6d2-       0.0002   -0.0000    0.0003   -0.0000    0.0000    0.0000    0.0004   -0.0000    0.0002    0.0019
       46 W      7d2-      -0.0002    0.0000   -0.0003    0.0000   -0.0000    0.0000    0.0004    0.0000    0.0000    0.0001
       47 W      8d2-       0.0002   -0.0000    0.0003   -0.0000    0.0000   -0.0001   -0.0016    0.0000   -0.0003   -0.0025
       48 W      9d2-      -0.0002    0.0000   -0.0002    0.0000   -0.0000    0.0002    0.0021   -0.0000    0.0003    0.0031
       49 W     10d2-       0.0001   -0.0000    0.0001   -0.0000   -0.0000   -0.0002   -0.0022    0.0000   -0.0003   -0.0025
       50 W     11d2-       0.0000   -0.0000    0.0000   -0.0000    0.0000   -0.0000   -0.0002   -0.0000    0.0000    0.0001
       51 W      3d1-       0.6896    0.0578   -0.7128    0.0000   -0.0000   -0.0001   -0.0008    0.0000    0.0001    0.0008
       52 W      4d1-      -0.0011   -0.0002    0.0020   -0.0000    0.0000    0.0048    0.0565   -0.0000    0.0629    0.5792
       53 W      5d1-       0.0002    0.0000   -0.0003    0.0000   -0.0000   -0.0001   -0.0014    0.0000    0.0002    0.0020
       54 W      6d1-      -0.0002   -0.0000    0.0004   -0.0000    0.0000    0.0001    0.0011   -0.0000   -0.0002   -0.0014
       55 W      7d1-       0.0003    0.0000   -0.0004    0.0000    0.0000   -0.0000   -0.0000    0.0000   -0.0000   -0.0000
       56 W      8d1-      -0.0003   -0.0000    0.0003   -0.0000   -0.0000   -0.0001   -0.0017   -0.0000    0.0002    0.0017
       57 W      9d1-       0.0002    0.0000   -0.0002    0.0000    0.0000    0.0002    0.0026   -0.0000   -0.0002   -0.0021
       58 W     10d1-      -0.0001   -0.0000    0.0001   -0.0000   -0.0000   -0.0002   -0.0028    0.0000    0.0002    0.0017
       59 W     11d1-      -0.0000   -0.0000    0.0000   -0.0000    0.0000   -0.0000   -0.0001   -0.0000   -0.0000   -0.0001
       60 W      3d0        0.0000    0.0000    0.0000    1.0000    0.0004   -0.0000    0.0000    0.0005   -0.0000    0.0000
       61 W      4d0       -0.0000   -0.0000   -0.0000   -0.0030   -0.0109   -0.0000   -0.0000   -0.0374   -0.0000    0.0000
       62 W      5d0        0.0000    0.0000    0.0000    0.0004    0.0003    0.0000   -0.0000    0.0004    0.0000   -0.0000
       63 W      6d0       -0.0000   -0.0000   -0.0000   -0.0005   -0.0001   -0.0000    0.0000    0.0002   -0.0000    0.0000
       64 W      7d0        0.0000    0.0000    0.0000    0.0006   -0.0002    0.0000   -0.0000   -0.0012    0.0000   -0.0000
       65 W      8d0       -0.0000   -0.0000   -0.0000   -0.0005    0.0008   -0.0000    0.0000    0.0024   -0.0000    0.0000
       66 W      9d0        0.0000    0.0000    0.0000    0.0003   -0.0011    0.0000   -0.0000   -0.0029    0.0000   -0.0000
       67 W     10d0       -0.0000   -0.0000   -0.0000   -0.0001    0.0011   -0.0000    0.0000    0.0028   -0.0000    0.0000
       68 W     11d0       -0.0000   -0.0000   -0.0000   -0.0001    0.0001   -0.0000    0.0000    0.0005   -0.0000    0.0000
       69 W      3d1+      -0.1141    0.7128    0.0578   -0.0000    0.0000   -0.0008    0.0001   -0.0000    0.0008   -0.0001
       70 W      4d1+       0.0002   -0.0020   -0.0002    0.0000   -0.0000    0.0565   -0.0048    0.0000    0.5792   -0.0629
       71 W      5d1+      -0.0000    0.0003    0.0000   -0.0000   -0.0000   -0.0014    0.0001   -0.0000    0.0020   -0.0002
       72 W      6d1+       0.0000   -0.0004   -0.0000    0.0000    0.0000    0.0011   -0.0001    0.0000   -0.0014    0.0002
       73 W      7d1+      -0.0000    0.0004    0.0000   -0.0000   -0.0000   -0.0000    0.0000   -0.0000   -0.0000    0.0000
       74 W      8d1+       0.0000   -0.0003   -0.0000    0.0000    0.0000   -0.0017    0.0001    0.0000    0.0017   -0.0002
       75 W      9d1+      -0.0000    0.0002    0.0000   -0.0000   -0.0000    0.0026   -0.0002    0.0000   -0.0021    0.0002
       76 W     10d1+       0.0000   -0.0001   -0.0000    0.0000    0.0000   -0.0028    0.0002   -0.0000    0.0017   -0.0002
       77 W     11d1+       0.0000   -0.0000   -0.0000    0.0000   -0.0000   -0.0001    0.0000    0.0000   -0.0001    0.0000
       78 W      3d2+      -0.1167   -0.6967   -0.0565    0.0000   -0.0000    0.0005   -0.0000   -0.0000    0.0011   -0.0001
       79 W      4d2+       0.0001    0.0018    0.0001   -0.0000    0.0000   -0.0368    0.0031   -0.0000    0.8075   -0.0877
       80 W      5d2+      -0.0000   -0.0002   -0.0000    0.0000   -0.0000    0.0008   -0.0001    0.0000    0.0027   -0.0003
       81 W      6d2+       0.0000    0.0003    0.0000   -0.0000    0.0000   -0.0004    0.0000   -0.0000   -0.0019    0.0002
       82 W      7d2+      -0.0000   -0.0003   -0.0000    0.0000   -0.0000   -0.0004    0.0000    0.0000   -0.0001    0.0000
       83 W      8d2+       0.0000    0.0003    0.0000   -0.0000    0.0000    0.0016   -0.0001    0.0000    0.0025   -0.0003
       84 W      9d2+      -0.0000   -0.0002   -0.0000    0.0000   -0.0000   -0.0021    0.0002   -0.0000   -0.0031    0.0003
       85 W     10d2+       0.0000    0.0001    0.0000   -0.0000   -0.0000    0.0022   -0.0002    0.0000    0.0025   -0.0003
       86 W     11d2+       0.0000    0.0000    0.0000   -0.0000    0.0000    0.0002   -0.0000   -0.0000   -0.0001    0.0000
       87 W      4f3-      -0.0000    0.0000   -0.0000    0.0000    0.0000    0.0000    0.0000   -0.0000   -0.0000   -0.0000
       88 W      5f3-       0.0000   -0.0000    0.0000   -0.0000   -0.0000   -0.0000   -0.0000    0.0000    0.0000    0.0000
       89 W      6f3-      -0.0000    0.0000   -0.0000    0.0000   -0.0000    0.0000    0.0000   -0.0000   -0.0000   -0.0000
       90 W      7f3-       0.0000   -0.0000    0.0000    0.0000    0.0000    0.0000    0.0000   -0.0000   -0.0000   -0.0000
       91 W      8f3-      -0.0000    0.0000   -0.0000   -0.0000    0.0000   -0.0000   -0.0000    0.0000    0.0000    0.0000
       92 W      9f3-       0.0000   -0.0000    0.0000    0.0000   -0.0000    0.0000    0.0000   -0.0000   -0.0000   -0.0000
       93 W     10f3-      -0.0000    0.0000   -0.0000   -0.0000    0.0000   -0.0000   -0.0000    0.0000    0.0000    0.0000
       94 W     11f3-       0.0000   -0.0000    0.0000    0.0000   -0.0000    0.0000    0.0000   -0.0000   -0.0000   -0.0000
       95 W      4f2-      -0.0005    0.0001   -0.0012    0.0000    0.0000   -0.0011   -0.0132    0.0000   -0.0025   -0.0234
       96 W      5f2-       0.0003   -0.0001    0.0006   -0.0000    0.0000    0.0002    0.0019   -0.0000    0.0004    0.0033
       97 W      6f2-      -0.0003    0.0000   -0.0005    0.0000   -0.0000    0.0001    0.0010    0.0000    0.0001    0.0006
       98 W      7f2-       0.0002   -0.0000    0.0003   -0.0000    0.0000   -0.0002   -0.0028    0.0000   -0.0003   -0.0025
       99 W      8f2-      -0.0001    0.0000   -0.0001    0.0000   -0.0000    0.0002    0.0024   -0.0000    0.0002    0.0020
      100 W      9f2-       0.0001   -0.0000    0.0000   -0.0000   -0.0000   -0.0001   -0.0008    0.0000   -0.0001   -0.0007
      101 W     10f2-      -0.0001    0.0000   -0.0000    0.0000    0.0000   -0.0000   -0.0004   -0.0000   -0.0000   -0.0001
      102 W     11f2-       0.0000   -0.0000    0.0000   -0.0000   -0.0000    0.0001    0.0007    0.0000    0.0000    0.0002
      103 W      4f1-       0.0005    0.0000   -0.0003    0.0000   -0.0000   -0.0004   -0.0047    0.0000    0.0012    0.0111
      104 W      5f1-      -0.0003   -0.0000    0.0002   -0.0000   -0.0000    0.0001    0.0007   -0.0000   -0.0002   -0.0018
      105 W      6f1-       0.0003    0.0000   -0.0002    0.0000    0.0000    0.0000    0.0004    0.0000   -0.0000   -0.0000
      106 W      7f1-      -0.0002   -0.0000    0.0001   -0.0000    0.0000   -0.0001   -0.0010    0.0000    0.0001    0.0009
      107 W      8f1-       0.0001    0.0000   -0.0001    0.0000   -0.0000    0.0001    0.0009   -0.0000   -0.0001   -0.0008
      108 W      9f1-      -0.0001   -0.0000    0.0001   -0.0000    0.0000   -0.0000   -0.0003    0.0000    0.0000    0.0003
      109 W     10f1-       0.0001    0.0000   -0.0001    0.0000   -0.0000   -0.0000   -0.0001    0.0000   -0.0000   -0.0001
      110 W     11f1-      -0.0000   -0.0000    0.0000   -0.0000    0.0000    0.0000    0.0002    0.0000   -0.0000   -0.0000
      111 W      4f0        0.0000   -0.0000   -0.0000   -0.0000   -0.0217    0.0000   -0.0000   -0.0077    0.0000   -0.0000
      112 W      5f0       -0.0000   -0.0000   -0.0000   -0.0001    0.0043   -0.0000    0.0000    0.0009   -0.0000    0.0000
      113 W      6f0        0.0000    0.0000    0.0000    0.0002    0.0008   -0.0000    0.0000    0.0006   -0.0000    0.0000
      114 W      7f0       -0.0000   -0.0000   -0.0000   -0.0002   -0.0044    0.0000   -0.0000   -0.0014    0.0000   -0.0000
      115 W      8f0        0.0000    0.0000    0.0000    0.0002    0.0046   -0.0000    0.0000    0.0011   -0.0000    0.0000
      116 W      9f0       -0.0000   -0.0000   -0.0000   -0.0002   -0.0022    0.0000   -0.0000   -0.0003    0.0000   -0.0000
      117 W     10f0        0.0000    0.0000    0.0000    0.0002    0.0000    0.0000    0.0000   -0.0002    0.0000   -0.0000
      118 W     11f0       -0.0000   -0.0000   -0.0000   -0.0001    0.0012    0.0000    0.0000    0.0003   -0.0000    0.0000
      119 W      4f1+      -0.0001    0.0003    0.0000   -0.0000   -0.0000   -0.0047    0.0004   -0.0000    0.0111   -0.0012
      120 W      5f1+       0.0000   -0.0002   -0.0000    0.0000    0.0000    0.0007   -0.0001    0.0000   -0.0018    0.0002
      121 W      6f1+      -0.0000    0.0002    0.0000   -0.0000   -0.0000    0.0004   -0.0000   -0.0000   -0.0000    0.0000
      122 W      7f1+       0.0000   -0.0001   -0.0000    0.0000   -0.0000   -0.0010    0.0001   -0.0000    0.0009   -0.0001
      123 W      8f1+      -0.0000    0.0001    0.0000   -0.0000    0.0000    0.0009   -0.0001    0.0000   -0.0008    0.0001
      124 W      9f1+       0.0000   -0.0001   -0.0000    0.0000   -0.0000   -0.0003    0.0000   -0.0000    0.0003   -0.0000
      125 W     10f1+      -0.0000    0.0001    0.0000   -0.0000    0.0000   -0.0001    0.0000   -0.0000   -0.0001    0.0000
      126 W     11f1+       0.0000   -0.0000   -0.0000    0.0000    0.0000    0.0002   -0.0000   -0.0000   -0.0000    0.0000
      127 W      4f2+      -0.0001   -0.0012   -0.0001    0.0000    0.0000    0.0132   -0.0011    0.0000    0.0234   -0.0025
      128 W      5f2+       0.0001    0.0006    0.0001   -0.0000    0.0000   -0.0019    0.0002   -0.0000   -0.0033    0.0004
      129 W      6f2+      -0.0000   -0.0005   -0.0000    0.0000   -0.0000   -0.0010    0.0001    0.0000   -0.0006    0.0001
      130 W      7f2+       0.0000    0.0003    0.0000   -0.0000    0.0000    0.0028   -0.0002    0.0000    0.0025   -0.0003
      131 W      8f2+      -0.0000   -0.0001   -0.0000    0.0000   -0.0000   -0.0024    0.0002   -0.0000   -0.0020    0.0002
      132 W      9f2+       0.0000    0.0000    0.0000   -0.0000    0.0000    0.0008   -0.0001    0.0000    0.0007   -0.0001
      133 W     10f2+      -0.0000   -0.0000   -0.0000    0.0000    0.0000    0.0004   -0.0000   -0.0000    0.0001   -0.0000
      134 W     11f2+       0.0000    0.0000    0.0000   -0.0000   -0.0000   -0.0007    0.0001    0.0000   -0.0002    0.0000
      135 W      4f3+       0.0000    0.0000    0.0000    0.0004   -0.0143    0.0000   -0.0000    0.0130    0.0000   -0.0000
      136 W      5f3+      -0.0000   -0.0000   -0.0000   -0.0002    0.0029   -0.0000    0.0000   -0.0019   -0.0000    0.0000
      137 W      6f3+       0.0000    0.0000    0.0000    0.0002    0.0005    0.0000   -0.0000   -0.0009    0.0000   -0.0000
      138 W      7f3+      -0.0000   -0.0000   -0.0000   -0.0001   -0.0028    0.0000   -0.0000    0.0026   -0.0000    0.0000
      139 W      8f3+       0.0000    0.0000    0.0000    0.0000    0.0030   -0.0000    0.0000   -0.0023    0.0000   -0.0000
      140 W      9f3+       0.0000    0.0000    0.0000   -0.0000   -0.0014    0.0000   -0.0000    0.0008    0.0000   -0.0000
      141 W     10f3+      -0.0000   -0.0000   -0.0000   -0.0000    0.0000   -0.0000    0.0000    0.0004   -0.0000    0.0000
      142 W     11f3+       0.0000    0.0000    0.0000    0.0000    0.0007    0.0000   -0.0000   -0.0006    0.0000   -0.0000
      143 W      5g4-       0.0001    0.0000   -0.0003    0.0000    0.0000   -0.0006   -0.0072    0.0000    0.0001    0.0013
      144 W      6g4-      -0.0000   -0.0000    0.0002   -0.0000   -0.0000    0.0003    0.0041   -0.0000   -0.0001   -0.0006
      145 W      7g4-       0.0000    0.0000   -0.0001    0.0000    0.0000   -0.0002   -0.0022    0.0000    0.0000    0.0002
      146 W      8g4-      -0.0000   -0.0000    0.0001   -0.0000   -0.0000    0.0000    0.0006   -0.0000    0.0000    0.0000
      147 W      5g3-       0.0000   -0.0000    0.0000   -0.0000   -0.0000   -0.0000   -0.0000   -0.0000    0.0000    0.0000
      148 W      6g3-      -0.0000    0.0000   -0.0000    0.0000    0.0000    0.0000    0.0000   -0.0000   -0.0000   -0.0000
      149 W      7g3-       0.0000   -0.0000    0.0000   -0.0000   -0.0000   -0.0000   -0.0000    0.0000    0.0000    0.0000
      150 W      8g3-      -0.0000    0.0000   -0.0000    0.0000    0.0000    0.0000    0.0000   -0.0000   -0.0000    0.0000
      151 W      5g2-       0.0000   -0.0000    0.0001   -0.0000    0.0000    0.0001    0.0013   -0.0000    0.0001    0.0005
      152 W      6g2-      -0.0000    0.0000   -0.0001    0.0000   -0.0000   -0.0001   -0.0008    0.0000   -0.0000   -0.0002
      153 W      7g2-       0.0000   -0.0000    0.0001   -0.0000    0.0000    0.0000    0.0004   -0.0000    0.0000    0.0001
      154 W      8g2-      -0.0000    0.0000   -0.0000    0.0000   -0.0000   -0.0000   -0.0001    0.0000   -0.0000   -0.0000
      155 W      5g1-      -0.0000    0.0000   -0.0004    0.0000   -0.0000   -0.0007   -0.0083    0.0000   -0.0005   -0.0043
      156 W      6g1-       0.0000   -0.0000    0.0002   -0.0000    0.0000    0.0004    0.0047   -0.0000    0.0002    0.0018
      157 W      7g1-      -0.0000    0.0000   -0.0002    0.0000   -0.0000   -0.0002   -0.0025    0.0000   -0.0001   -0.0007
      158 W      8g1-       0.0000   -0.0000    0.0001   -0.0000    0.0000    0.0001    0.0007   -0.0000   -0.0000   -0.0000
      159 W      5g0       -0.0000   -0.0000   -0.0000   -0.0007   -0.0007    0.0000   -0.0000   -0.0153    0.0000   -0.0000
      160 W      6g0        0.0000    0.0000    0.0000    0.0005    0.0004   -0.0000    0.0000    0.0088   -0.0000    0.0000
      161 W      7g0       -0.0000   -0.0000   -0.0000   -0.0003   -0.0002    0.0000   -0.0000   -0.0046    0.0000   -0.0000
      162 W      8g0        0.0000    0.0000    0.0000    0.0002    0.0000   -0.0000    0.0000    0.0012    0.0000    0.0000
      163 W      5g1+       0.0000    0.0004    0.0000   -0.0000    0.0000   -0.0083    0.0007   -0.0000   -0.0043    0.0005
      164 W      6g1+      -0.0000   -0.0002   -0.0000    0.0000   -0.0000    0.0047   -0.0004   -0.0000    0.0018   -0.0002
      165 W      7g1+       0.0000    0.0002    0.0000   -0.0000    0.0000   -0.0025    0.0002    0.0000   -0.0007    0.0001
      166 W      8g1+      -0.0000   -0.0001   -0.0000    0.0000   -0.0000    0.0007   -0.0001    0.0000   -0.0000    0.0000
      167 W      5g2+       0.0000    0.0001    0.0000   -0.0000   -0.0000   -0.0013    0.0001   -0.0000   -0.0005    0.0001
      168 W      6g2+      -0.0000   -0.0001   -0.0000    0.0000   -0.0000    0.0008   -0.0001    0.0000    0.0002   -0.0000
      169 W      7g2+       0.0000    0.0001    0.0000   -0.0000    0.0000   -0.0004    0.0000   -0.0000   -0.0001    0.0000
      170 W      8g2+      -0.0000   -0.0000   -0.0000    0.0000   -0.0000    0.0001   -0.0000    0.0000    0.0000   -0.0000
      171 W      5g3+      -0.0000   -0.0000   -0.0000   -0.0002    0.0072    0.0000   -0.0000   -0.0096    0.0000   -0.0000
      172 W      6g3+       0.0000    0.0000    0.0000    0.0001   -0.0044   -0.0000    0.0000    0.0055   -0.0000    0.0000
      173 W      7g3+      -0.0000   -0.0000   -0.0000   -0.0001    0.0025    0.0000   -0.0000   -0.0029    0.0000   -0.0000
      174 W      8g3+       0.0000    0.0000    0.0000    0.0001   -0.0008   -0.0000    0.0000    0.0007   -0.0000    0.0000
      175 W      5g4+      -0.0000    0.0003    0.0000   -0.0000   -0.0000   -0.0072    0.0006   -0.0000    0.0013   -0.0001
      176 W      6g4+       0.0000   -0.0002   -0.0000    0.0000    0.0000    0.0041   -0.0003    0.0000   -0.0006    0.0001
      177 W      7g4+      -0.0000    0.0001    0.0000   -0.0000   -0.0000   -0.0022    0.0002   -0.0000    0.0002   -0.0000
      178 W      8g4+       0.0000   -0.0001   -0.0000    0.0000    0.0000    0.0006   -0.0000    0.0000    0.0000   -0.0000
      179 W      6h5-       0.0000   -0.0000    0.0000   -0.0000   -0.0000    0.0001    0.0008    0.0000    0.0003    0.0026
      180 W      7h5-      -0.0000    0.0000   -0.0001    0.0000    0.0000   -0.0001   -0.0008   -0.0000   -0.0003   -0.0025
      181 W      6h4-      -0.0000   -0.0000    0.0000   -0.0000   -0.0000    0.0002    0.0025   -0.0000   -0.0002   -0.0014
      182 W      7h4-       0.0000    0.0000   -0.0001    0.0000    0.0000   -0.0002   -0.0027    0.0000    0.0002    0.0014
      183 W      6h3-       0.0000   -0.0000    0.0000   -0.0000   -0.0000   -0.0000   -0.0000   -0.0000    0.0000   -0.0000
      184 W      7h3-      -0.0000    0.0000   -0.0000    0.0000   -0.0000   -0.0000   -0.0000    0.0000   -0.0000   -0.0000
      185 W      6h2-       0.0000   -0.0000    0.0000   -0.0000   -0.0000    0.0001    0.0010    0.0000    0.0002    0.0020
      186 W      7h2-      -0.0000    0.0000   -0.0000    0.0000    0.0000   -0.0001   -0.0010   -0.0000   -0.0002   -0.0019
      187 W      6h1-      -0.0000   -0.0000    0.0001   -0.0000    0.0000    0.0001    0.0012    0.0000   -0.0003   -0.0023
      188 W      7h1-       0.0000    0.0000   -0.0001    0.0000    0.0000   -0.0001   -0.0013   -0.0000    0.0002    0.0022
      189 W      6h0       -0.0000   -0.0000   -0.0000   -0.0001   -0.0008   -0.0000    0.0000   -0.0024    0.0000   -0.0000
      190 W      7h0        0.0000    0.0000    0.0000    0.0001    0.0009    0.0000   -0.0000    0.0024   -0.0000    0.0000
      191 W      6h1+       0.0000   -0.0001   -0.0000    0.0000   -0.0000    0.0012   -0.0001   -0.0000   -0.0023    0.0003
      192 W      7h1+      -0.0000    0.0001    0.0000   -0.0000   -0.0000   -0.0013    0.0001    0.0000    0.0022   -0.0002
      193 W      6h2+       0.0000    0.0000    0.0000   -0.0000   -0.0000   -0.0010    0.0001    0.0000   -0.0020    0.0002
      194 W      7h2+      -0.0000   -0.0000   -0.0000    0.0000    0.0000    0.0010   -0.0001   -0.0000    0.0019   -0.0002
      195 W      6h3+      -0.0000   -0.0000   -0.0000   -0.0000   -0.0012   -0.0000    0.0000    0.0021    0.0000   -0.0000
      196 W      7h3+       0.0000    0.0000    0.0000    0.0000    0.0014    0.0000   -0.0000   -0.0024   -0.0000    0.0000
      197 W      6h4+       0.0000   -0.0000   -0.0000    0.0000    0.0000    0.0025   -0.0002    0.0000   -0.0014    0.0002
      198 W      7h4+      -0.0000    0.0001    0.0000   -0.0000   -0.0000   -0.0027    0.0002   -0.0000    0.0014   -0.0002
      199 W      6h5+       0.0000    0.0000    0.0000   -0.0000   -0.0000   -0.0008    0.0001    0.0000   -0.0026    0.0003
      200 W      7h5+      -0.0000   -0.0001   -0.0000    0.0000    0.0000    0.0008   -0.0001   -0.0000    0.0025   -0.0003

          Orbital           21        22        23        24        25        26        27        28        29        30    
          Energy           -9.6608   -9.6102   -9.6102   -3.7601   -2.3656   -2.3656   -2.2966   -1.9747   -1.9043   -1.8743
          Occ. No.          2.0000    2.0000    2.0000    2.0000    2.0000    2.0000    2.0000    2.0000    2.0000    2.0000

        1 W      1s        -0.0000   -0.0000   -0.0000   -0.0000   -0.0000   -0.0000    0.0000   -0.0000   -0.0000    0.0000
        2 W      2s         0.0000   -0.0000   -0.0000    0.0000    0.0000    0.0000   -0.0000    0.0000    0.0000    0.0000
        3 W      3s         0.0002    0.0000    0.0000    0.0003   -0.0000   -0.0000    0.0001   -0.0000    0.0001   -0.0000
        4 W      4s         0.0091    0.0000    0.0000   -0.0024   -0.0000   -0.0000    0.0007   -0.0000    0.0027   -0.0000
        5 W      5s        -0.0074   -0.0000   -0.0000   -0.9939    0.0000    0.0000   -0.0513   -0.0000    0.0141   -0.0000
        6 W      6s         0.0015    0.0000    0.0000   -0.0296    0.0000    0.0000   -0.0133    0.0000    0.0077   -0.0000
        7 W      7s        -0.0015   -0.0000   -0.0000    0.0210   -0.0000   -0.0000    0.0098    0.0000   -0.0055    0.0000
        8 W      8s         0.0032    0.0000    0.0000   -0.0329    0.0000    0.0000   -0.0114   -0.0000    0.0066   -0.0000
        9 W      9s        -0.0030   -0.0000   -0.0000    0.0153   -0.0000   -0.0000    0.0026    0.0000   -0.0023    0.0000
       10 W     10s         0.0023    0.0000    0.0000    0.0017   -0.0000   -0.0000    0.0015   -0.0000    0.0004   -0.0000
       11 W     11s        -0.0006   -0.0000   -0.0000   -0.0030    0.0000    0.0000   -0.0004    0.0000   -0.0002    0.0000
       12 W      2px       -0.0000    0.0000    0.0000    0.0000    0.0000    0.0000   -0.0000   -0.0000   -0.0000   -0.0000
       13 W      3px       -0.0000   -0.0010   -0.0001   -0.0000    0.0000    0.0003    0.0000   -0.0000   -0.0000   -0.0000
       14 W      4px       -0.0000   -0.0657   -0.0059   -0.0000   -0.0000   -0.0000   -0.0000   -0.0000   -0.0000    0.0013
       15 W      5px       -0.0000    0.0069    0.0006   -0.0000   -0.0790   -0.9906   -0.0000    0.0000   -0.0000    0.0180
       16 W      6px       -0.0000   -0.0030   -0.0003    0.0000   -0.0023   -0.0284   -0.0000   -0.0000    0.0000    0.0039
       17 W      7px        0.0000    0.0077    0.0007   -0.0000    0.0032    0.0402    0.0000    0.0000    0.0000   -0.0037
       18 W      8px       -0.0000   -0.0066   -0.0006    0.0000   -0.0006   -0.0079    0.0000   -0.0000   -0.0000    0.0004
       19 W      9px        0.0000    0.0056    0.0005    0.0000   -0.0005   -0.0065   -0.0000    0.0000   -0.0000    0.0002
       20 W     10px       -0.0000   -0.0036   -0.0003   -0.0000    0.0003    0.0035    0.0000   -0.0000   -0.0000    0.0001
       21 W     11px       -0.0000   -0.0008   -0.0001    0.0000   -0.0001   -0.0006   -0.0000   -0.0000   -0.0000    0.0000
       22 W      2py        0.0000    0.0000   -0.0000   -0.0000   -0.0000    0.0000    0.0000   -0.0000    0.0000   -0.0000
       23 W      3py        0.0000   -0.0001    0.0010    0.0000   -0.0003    0.0000   -0.0000   -0.0000    0.0000   -0.0000
       24 W      4py       -0.0000   -0.0059    0.0657    0.0000    0.0000   -0.0000    0.0000   -0.0000    0.0000    0.0001
       25 W      5py        0.0000    0.0006   -0.0069    0.0000    0.9906   -0.0790    0.0000    0.0000    0.0000    0.0015
       26 W      6py        0.0000   -0.0003    0.0030   -0.0000    0.0284   -0.0023    0.0000    0.0000   -0.0000    0.0003
       27 W      7py       -0.0000    0.0007   -0.0077    0.0000   -0.0402    0.0032   -0.0000    0.0000   -0.0000   -0.0003
       28 W      8py        0.0000   -0.0006    0.0066   -0.0000    0.0079   -0.0006   -0.0000   -0.0000    0.0000    0.0000
       29 W      9py       -0.0000    0.0005   -0.0056   -0.0000    0.0065   -0.0005    0.0000    0.0000    0.0000    0.0000
       30 W     10py        0.0000   -0.0003    0.0036    0.0000   -0.0035    0.0003   -0.0000   -0.0000    0.0000    0.0000
       31 W     11py        0.0000   -0.0001    0.0008   -0.0000    0.0006   -0.0001    0.0000   -0.0000    0.0000    0.0000
       32 W      2pz        0.0000    0.0000    0.0000    0.0000    0.0000    0.0000   -0.0000   -0.0000   -0.0000    0.0000
       33 W      3pz        0.0004   -0.0000   -0.0000   -0.0001    0.0000    0.0000   -0.0004    0.0000   -0.0004   -0.0000
       34 W      4pz        0.0365   -0.0000   -0.0000    0.0008    0.0000    0.0000    0.0002    0.0000   -0.0154   -0.0000
       35 W      5pz       -0.0067    0.0000    0.0000   -0.0538   -0.0000   -0.0000    0.9879   -0.0000   -0.1182   -0.0000
       36 W      6pz        0.0028    0.0000    0.0000    0.0069    0.0000    0.0000    0.0437   -0.0000   -0.0224   -0.0000
       37 W      7pz       -0.0067    0.0000   -0.0000   -0.0091    0.0000    0.0000   -0.0535    0.0000    0.0257    0.0000
       38 W      8pz        0.0055   -0.0000   -0.0000    0.0021   -0.0000   -0.0000    0.0077   -0.0000   -0.0060    0.0000
       39 W      9pz       -0.0045    0.0000    0.0000    0.0005   -0.0000   -0.0000    0.0084   -0.0000    0.0012    0.0000
       40 W     10pz        0.0028   -0.0000   -0.0000   -0.0004    0.0000    0.0000   -0.0040   -0.0000   -0.0019   -0.0000
       41 W     11pz        0.0008   -0.0000   -0.0000    0.0003   -0.0000   -0.0000    0.0010   -0.0000   -0.0011   -0.0000
       42 W      3d2-       0.0000    0.0001   -0.0016   -0.0000    0.0001   -0.0000    0.0000   -0.0000   -0.0000    0.0000
       43 W      4d2-       0.0000    0.0514   -0.5767    0.0000   -0.0006    0.0000    0.0000   -0.0000    0.0000    0.0014
       44 W      5d2-       0.0000    0.0002   -0.0025   -0.0000    0.0281   -0.0022    0.0000   -0.0000   -0.0000   -0.0001
       45 W      6d2-      -0.0000   -0.0001    0.0010    0.0000   -0.0184    0.0015   -0.0000    0.0000    0.0000    0.0002
       46 W      7d2-       0.0000   -0.0002    0.0020   -0.0000    0.0082   -0.0007    0.0000   -0.0000   -0.0000   -0.0002
       47 W      8d2-       0.0000    0.0005   -0.0053    0.0000   -0.0014    0.0001   -0.0000    0.0000    0.0000    0.0002
       48 W      9d2-      -0.0000   -0.0005    0.0059    0.0000    0.0004   -0.0000    0.0000   -0.0000   -0.0000   -0.0001
       49 W     10d2-       0.0000    0.0004   -0.0046   -0.0000    0.0008   -0.0001    0.0000    0.0000    0.0000    0.0001
       50 W     11d2-      -0.0000    0.0001   -0.0006    0.0000   -0.0001    0.0000   -0.0000    0.0000    0.0000    0.0000
       51 W      3d1-      -0.0000    0.0002   -0.0022   -0.0000    0.0001   -0.0000    0.0000    0.0000   -0.0000   -0.0000
       52 W      4d1-      -0.0000    0.0718   -0.8062    0.0000   -0.0021    0.0002    0.0000    0.0000   -0.0000   -0.0005
       53 W      5d1-      -0.0000    0.0003   -0.0037    0.0000    0.0435   -0.0035    0.0000    0.0000   -0.0000   -0.0002
       54 W      6d1-       0.0000   -0.0001    0.0015   -0.0000   -0.0292    0.0023   -0.0000   -0.0000    0.0000    0.0001
       55 W      7d1-      -0.0000   -0.0002    0.0026    0.0000    0.0135   -0.0011    0.0000   -0.0000    0.0000   -0.0001
       56 W      8d1-      -0.0000    0.0006   -0.0072    0.0000   -0.0023    0.0002    0.0000    0.0000   -0.0000    0.0000
       57 W      9d1-       0.0000   -0.0007    0.0079    0.0000    0.0005   -0.0000    0.0000   -0.0000   -0.0000   -0.0000
       58 W     10d1-      -0.0000    0.0006   -0.0063   -0.0000    0.0009   -0.0001    0.0000    0.0000   -0.0000    0.0000
       59 W     11d1-      -0.0000    0.0001   -0.0007   -0.0000   -0.0002    0.0000   -0.0000    0.0000    0.0000    0.0000
       60 W      3d0        0.0030    0.0000    0.0000   -0.0000   -0.0000   -0.0000   -0.0001    0.0000   -0.0005   -0.0000
       61 W      4d0        0.9980   -0.0000   -0.0000   -0.0069   -0.0000   -0.0000    0.0015   -0.0000   -0.0329   -0.0000
       62 W      5d0        0.0035   -0.0000   -0.0000    0.0106    0.0000    0.0000   -0.0245   -0.0000    0.0070   -0.0000
       63 W      6d0       -0.0013   -0.0000    0.0000   -0.0090   -0.0000   -0.0000    0.0158    0.0000   -0.0071    0.0000
       64 W      7d0       -0.0030    0.0000    0.0000    0.0056    0.0000    0.0000   -0.0067   -0.0000    0.0068    0.0000
       65 W      8d0        0.0078   -0.0000   -0.0000   -0.0019   -0.0000   -0.0000    0.0012   -0.0000   -0.0059   -0.0000
       66 W      9d0       -0.0086    0.0000    0.0000    0.0006    0.0000    0.0000   -0.0005   -0.0000    0.0047    0.0000
       67 W     10d0        0.0067   -0.0000   -0.0000    0.0003    0.0000    0.0000   -0.0011   -0.0000   -0.0025   -0.0000
       68 W     11d0        0.0006    0.0000    0.0000   -0.0002   -0.0000   -0.0000    0.0001   -0.0000   -0.0005   -0.0000
       69 W      3d1+       0.0000    0.0022    0.0002    0.0000   -0.0000   -0.0001   -0.0000    0.0000    0.0000   -0.0004
       70 W      4d1+       0.0000    0.8062    0.0718   -0.0000    0.0002    0.0021   -0.0000    0.0000    0.0000   -0.0053
       71 W      5d1+       0.0000    0.0037    0.0003   -0.0000   -0.0035   -0.0435   -0.0000    0.0000    0.0000   -0.0022
       72 W      6d1+      -0.0000   -0.0015   -0.0001    0.0000    0.0023    0.0292    0.0000   -0.0000   -0.0000    0.0014
       73 W      7d1+       0.0000   -0.0026   -0.0002   -0.0000   -0.0011   -0.0135   -0.0000   -0.0000   -0.0000   -0.0007
       74 W      8d1+       0.0000    0.0072    0.0006   -0.0000    0.0002    0.0023   -0.0000    0.0000    0.0000    0.0004
       75 W      9d1+      -0.0000   -0.0079   -0.0007   -0.0000   -0.0000   -0.0005   -0.0000   -0.0000    0.0000   -0.0004
       76 W     10d1+       0.0000    0.0063    0.0006    0.0000   -0.0001   -0.0009   -0.0000    0.0000    0.0000    0.0002
       77 W     11d1+       0.0000    0.0007    0.0001    0.0000    0.0000    0.0002    0.0000    0.0000   -0.0000    0.0001
       78 W      3d2+       0.0000   -0.0016   -0.0001   -0.0000    0.0000    0.0001    0.0000    0.0000   -0.0000   -0.0004
       79 W      4d2+       0.0000   -0.5767   -0.0514    0.0000   -0.0000   -0.0006    0.0000    0.0000    0.0000   -0.0160
       80 W      5d2+       0.0000   -0.0025   -0.0002    0.0000    0.0022    0.0281    0.0000    0.0000   -0.0000    0.0017
       81 W      6d2+      -0.0000    0.0010    0.0001    0.0000   -0.0015   -0.0184   -0.0000   -0.0000    0.0000   -0.0020
       82 W      7d2+       0.0000    0.0020    0.0002   -0.0000    0.0007    0.0082    0.0000    0.0000   -0.0000    0.0021
       83 W      8d2+       0.0000   -0.0053   -0.0005    0.0000   -0.0001   -0.0014   -0.0000   -0.0000    0.0000   -0.0018
       84 W      9d2+      -0.0000    0.0059    0.0005    0.0000    0.0000    0.0004    0.0000    0.0000   -0.0000    0.0014
       85 W     10d2+       0.0000   -0.0046   -0.0004   -0.0000    0.0001    0.0008    0.0000   -0.0000    0.0000   -0.0008
       86 W     11d2+      -0.0000   -0.0006   -0.0001    0.0000   -0.0000   -0.0001   -0.0000   -0.0000   -0.0000   -0.0000
       87 W      4f3-       0.0000    0.0000   -0.0000   -0.0000   -0.0000    0.0000    0.0000    0.9989    0.0000    0.0000
       88 W      5f3-      -0.0000   -0.0000    0.0000    0.0000    0.0000   -0.0000    0.0000    0.0334    0.0000    0.0000
       89 W      6f3-       0.0000    0.0000   -0.0000    0.0000   -0.0000    0.0000    0.0000    0.0106    0.0000    0.0000
       90 W      7f3-       0.0000    0.0000    0.0000    0.0000    0.0000   -0.0000    0.0000   -0.0149   -0.0000   -0.0000
       91 W      8f3-      -0.0000   -0.0000   -0.0000   -0.0000    0.0000   -0.0000   -0.0000    0.0029    0.0000    0.0000
       92 W      9f3-       0.0000    0.0000   -0.0000   -0.0000   -0.0000    0.0000   -0.0000   -0.0002   -0.0000   -0.0000
       93 W     10f3-      -0.0000   -0.0000    0.0000    0.0000   -0.0000    0.0000   -0.0000   -0.0005    0.0000   -0.0000
       94 W     11f3-      -0.0000    0.0000   -0.0000    0.0000   -0.0000    0.0000    0.0000    0.0003    0.0000    0.0000
[...]
         3    9       2.09655882E-05  1.62446521E+02  2.08998465E+02  2.18091404E-12  3.71444986E+02
         3   11       5.98654200E-02  2.06182444E+07  1.69096731E+07  5.99857166E+06  4.35264892E+07
         3   13       5.76914440E-02  1.69096724E+07  2.06182445E+07  4.41793452E+06  4.19458514E+07
         3   15       1.49282669E-02  5.04589721E+06  6.49189604E+06  4.41302713E-09  1.15377932E+07
         3   17       2.35570475E-04  2.44288575E+05  3.14294166E+05  6.24530215E-11  5.58582741E+05
         4    6       3.32462710E-04  2.43944945E+03  2.03367796E+03  6.69210866E+02  5.14233827E+03
         4    8       3.20540851E-04  2.03367782E+03  2.43944951E+03  4.84810629E+02  4.95793796E+03
         4   10       2.09655882E-05  1.62446521E+02  2.08998465E+02  2.18091404E-12  3.71444986E+02
         4   12       5.98654200E-02  2.06182444E+07  1.69096731E+07  5.99857166E+06  4.35264892E+07
         4   14       5.76914440E-02  1.69096724E+07  2.06182445E+07  4.41793452E+06  4.19458514E+07
         4   16       1.49282669E-02  5.04589721E+06  6.49189604E+06  4.41302713E-09  1.15377932E+07
         4   18       2.35570475E-04  2.44288575E+05  3.14294166E+05  6.24530215E-11  5.58582741E+05
         5    9       2.98706878E-05  6.91014243E-04  2.27935972E+00  4.09251132E-16  2.28005073E+00
         5   11       5.63258940E-02  6.50703419E+06  6.15547635E+03  2.33646601E+07  2.98778498E+07
         5   13       1.22794330E-02  6.15547161E+03  6.50703414E+06  3.87531646E+02  6.51357714E+06
         5   15       4.90977845E-02  8.47682279E+03  2.79613788E+07  1.03369810E-09  2.79698556E+07
         5   17       6.50998357E-03  3.95313916E+03  1.30397000E+07  7.80558688E-10  1.30436532E+07
         6   10       2.98706878E-05  6.91014243E-04  2.27935972E+00  4.09251132E-16  2.28005073E+00
         6   12       5.63258940E-02  6.50703419E+06  6.15547635E+03  2.33646601E+07  2.98778498E+07
         6   14       1.22794330E-02  6.15547161E+03  6.50703414E+06  3.87531646E+02  6.51357714E+06
         6   16       4.90977845E-02  8.47682279E+03  2.79613788E+07  1.03369810E-09  2.79698556E+07
         6   18       6.50998357E-03  3.95313916E+03  1.30397000E+07  7.80558688E-10  1.30436532E+07
         7    9       2.98706805E-05  2.27935917E+00  6.91015291E-04  5.68370491E-14  2.28005018E+00
         7   11       1.22794308E-02  6.15547533E+03  6.50703293E+06  3.87531745E+02  6.51357594E+06
         7   13       5.63258968E-02  6.50703576E+06  6.15547319E+03  2.33646600E+07  2.98778513E+07
         7   15       4.90977839E-02  2.79613784E+07  8.47682204E+03  2.00560135E-07  2.79698553E+07
         7   17       6.50998360E-03  1.30397001E+07  3.95313911E+03  1.47090088E-07  1.30436533E+07
         8   10       2.98706805E-05  2.27935917E+00  6.91015291E-04  5.68370491E-14  2.28005018E+00
         8   12       1.22794308E-02  6.15547533E+03  6.50703293E+06  3.87531745E+02  6.51357594E+06
         8   14       5.63258968E-02  6.50703576E+06  6.15547319E+03  2.33646600E+07  2.98778513E+07
         8   16       4.90977839E-02  2.79613784E+07  8.47682204E+03  2.00560135E-07  2.79698553E+07
         8   18       6.50998360E-03  1.30397001E+07  3.95313911E+03  1.47090088E-07  1.30436533E+07
         9   11       2.72821284E-02  2.51269247E+03  1.41240689E+07  3.90221273E-10  1.41265816E+07
         9   13       2.72821227E-02  1.41240659E+07  2.51269674E+03  1.15215153E-07  1.41265786E+07
         9   15       7.00462637E-02  1.30056767E-07  8.62508852E-10  3.89852575E+07  3.89852575E+07
         9   17       1.37457727E-02  6.02705948E-08  5.99960643E-10  2.72026236E+07  2.72026236E+07
        10   12       2.72821284E-02  2.51269247E+03  1.41240689E+07  3.90221273E-10  1.41265816E+07
        10   14       2.72821227E-02  1.41240659E+07  2.51269674E+03  1.15215153E-07  1.41265786E+07
        10   16       7.00462637E-02  1.30056767E-07  8.62508852E-10  3.89852575E+07  3.89852575E+07
        10   18       1.37457727E-02  6.02705948E-08  5.99960643E-10  2.72026236E+07  2.72026236E+07
        11   15       2.73999822E-05  3.41009659E-03  1.91684347E+01  1.97803244E-15  1.91718448E+01
        11   17       1.02884995E-01  8.64168318E+03  4.85756263E+07  9.45588450E-11  4.85842680E+07
        12   16       2.73999822E-05  3.41009659E-03  1.91684347E+01  1.97803244E-15  1.91718448E+01
        12   18       1.02884995E-01  8.64168318E+03  4.85756263E+07  9.45588450E-11  4.85842680E+07
        13   15       2.73999795E-05  1.91684328E+01  3.41009442E-03  3.92478369E-14  1.91718429E+01
        13   17       1.02884996E-01  4.85756269E+07  8.64168307E+03  2.49634387E-09  4.85842686E+07
        14   16       2.73999795E-05  1.91684328E+01  3.41009442E-03  3.92478369E-14  1.91718429E+01
        14   18       1.02884996E-01  4.85756269E+07  8.64168307E+03  2.49634387E-09  4.85842686E+07
        15   17       9.82669892E-02  3.25234990E-11  5.96926123E-11  4.28998640E+07  4.28998640E+07
        16   18       9.82669892E-02  3.25234990E-11  5.96926123E-11  4.28998640E+07  4.28998640E+07
     -----------------------------------------------------------------------------------------------
--

++ Velocity transition strengths (SO states):
   ------------------------------------------
    for osc. strength at least    1.0000000000000001E-005

      From   To        Osc. strength     Einstein coefficients Ax, Ay, Az (sec-1)    Total A (sec-1)
     -----------------------------------------------------------------------------------------------
         1    5       4.02143896E-04  2.49607833E+03  2.99411089E+03  7.29958405E+02  6.22014763E+03
         1    7       4.20094022E-04  2.99411033E+03  2.49607842E+03  1.00760188E+03  6.49779063E+03
         1    9       6.52095547E-05  6.50053575E+02  5.05260842E+02  3.32635883E-12  1.15531442E+03
         1   11       6.31595971E-02  1.85110126E+07  2.25707848E+07  4.83995634E+06  4.59217538E+07
         1   13       6.55412317E-02  2.25707841E+07  1.85110127E+07  6.57158355E+06  4.76533804E+07
         1   15       1.65641461E-02  7.20332059E+06  5.59885928E+06  7.51547162E-09  1.28021799E+07
         1   17       1.49152902E-04  1.98997993E+05  1.54673351E+05  5.71064038E-11  3.53671344E+05
         2    6       4.02143896E-04  2.49607833E+03  2.99411089E+03  7.29958405E+02  6.22014763E+03
         2    8       4.20094022E-04  2.99411033E+03  2.49607842E+03  1.00760188E+03  6.49779063E+03
         2   10       6.52095547E-05  6.50053575E+02  5.05260842E+02  3.32635883E-12  1.15531442E+03
         2   12       6.31595971E-02  1.85110126E+07  2.25707848E+07  4.83995634E+06  4.59217538E+07
         2   14       6.55412317E-02  2.25707841E+07  1.85110127E+07  6.57158355E+06  4.76533804E+07
         2   16       1.65641461E-02  7.20332059E+06  5.59885928E+06  7.51547162E-09  1.28021799E+07
         2   18       1.49152902E-04  1.98997993E+05  1.54673351E+05  5.71064038E-11  3.53671344E+05
         3    5       4.20094050E-04  2.99411069E+03  2.49607848E+03  1.00760188E+03  6.49779106E+03
         3    7       4.02143868E-04  2.49607799E+03  2.99411080E+03  7.29958411E+02  6.22014720E+03
         3    9       6.52095518E-05  5.05261262E+02  6.50053103E+02  8.72928270E-13  1.15531437E+03
         3   11       6.55412327E-02  2.25707846E+07  1.85110130E+07  6.57158347E+06  4.76533811E+07
         3   13       6.31595962E-02  1.85110121E+07  2.25707846E+07  4.83995644E+06  4.59217532E+07
         3   15       1.65641459E-02  5.59885948E+06  7.20332024E+06  7.29714842E-09  1.28021797E+07
         3   17       1.49152899E-04  1.54673360E+05  1.98997979E+05  1.35086990E-11  3.53671338E+05
         4    6       4.20094050E-04  2.99411069E+03  2.49607848E+03  1.00760188E+03  6.49779106E+03
         4    8       4.02143868E-04  2.49607799E+03  2.99411080E+03  7.29958411E+02  6.22014720E+03
         4   10       6.52095518E-05  5.05261262E+02  6.50053103E+02  8.72928270E-13  1.15531437E+03
         4   12       6.55412327E-02  2.25707846E+07  1.85110130E+07  6.57158347E+06  4.76533811E+07
         4   14       6.31595962E-02  1.85110121E+07  2.25707846E+07  4.83995644E+06  4.59217532E+07
         4   16       1.65641459E-02  5.59885948E+06  7.20332024E+06  7.29714842E-09  1.28021797E+07
         4   18       1.49152899E-04  1.54673360E+05  1.98997979E+05  1.35086990E-11  3.53671338E+05
         5    9       4.76665667E-04  1.10270050E-02  3.63733271E+01  1.03359060E-15  3.63843541E+01
         5   11       6.48211173E-02  7.46326100E+06  7.06004041E+03  2.69139062E+07  3.43842272E+07
         5   13       1.40838846E-02  7.06003579E+03  7.46326095E+06  4.46400236E+02  7.47076738E+06
         5   15       5.63934485E-02  9.73646648E+03  3.21163994E+07  1.33163501E-09  3.21261359E+07
         5   17       3.50105654E-03  2.12599801E+03  7.01274979E+06  4.85541228E-10  7.01487579E+06
         6   10       4.76665667E-04  1.10270050E-02  3.63733271E+01  1.03359060E-15  3.63843541E+01
         6   12       6.48211173E-02  7.46326100E+06  7.06004041E+03  2.69139062E+07  3.43842272E+07
         6   14       1.40838846E-02  7.06003579E+03  7.46326095E+06  4.46400236E+02  7.47076738E+06
         6   16       5.63934485E-02  9.73646648E+03  3.21163994E+07  1.33163501E-09  3.21261359E+07
         6   18       3.50105654E-03  2.12599801E+03  7.01274979E+06  4.85541228E-10  7.01487579E+06
         7    9       4.76665647E-04  3.63733256E+01  1.10269963E-02  6.98268192E-14  3.63843526E+01
         7   11       1.40838819E-02  7.06003948E+03  7.46325953E+06  4.46400410E+02  7.47076597E+06
         7   13       6.48211208E-02  7.46326285E+06  7.06003718E+03  2.69139062E+07  3.43842291E+07
         7   15       5.63934481E-02  3.21163991E+07  9.73646561E+03  2.27569291E-07  3.21261356E+07
         7   17       3.50105659E-03  7.01274990E+06  2.12599795E+03  9.52165568E-08  7.01487589E+06
         8   10       4.76665647E-04  3.63733256E+01  1.10269963E-02  6.98268192E-14  3.63843526E+01
         8   12       1.40838819E-02  7.06003948E+03  7.46325953E+06  4.46400410E+02  7.47076597E+06
         8   14       6.48211208E-02  7.46326285E+06  7.06003718E+03  2.69139062E+07  3.43842291E+07
         8   16       5.63934481E-02  3.21163991E+07  9.73646561E+03  2.27569291E-07  3.21261356E+07
         8   18       3.50105659E-03  7.01274990E+06  2.12599795E+03  9.52165568E-08  7.01487589E+06
         9   11       2.95731508E-02  2.72370567E+03  1.53101937E+07  4.69315071E-10  1.53129174E+07
         9   13       2.95731444E-02  1.53101904E+07  2.72371056E+03  1.29170712E-07  1.53129141E+07
         9   15       8.47564732E-02  1.50780149E-07  9.88072958E-10  4.71726006E+07  4.71726006E+07
         9   17       8.49957063E-03  3.04113211E-08  3.08328818E-10  1.68205476E+07  1.68205476E+07
        10   12       2.95731508E-02  2.72370567E+03  1.53101937E+07  4.69315071E-10  1.53129174E+07
        10   14       2.95731444E-02  1.53101904E+07  2.72371056E+03  1.29170712E-07  1.53129141E+07
        10   16       8.47564732E-02  1.50780149E-07  9.88072958E-10  4.71726006E+07  4.71726006E+07
        10   18       8.49957063E-03  3.04113211E-08  3.08328818E-10  1.68205476E+07  1.68205476E+07
        11   15       1.00914855E-03  1.25595142E-01  7.05980946E+02  1.07776120E-14  7.06106541E+02
        11   17       1.60658341E-01  1.34943225E+04  7.58527196E+07  1.37708988E-10  7.58662140E+07
        12   16       1.00914855E-03  1.25595142E-01  7.05980946E+02  1.07776120E-14  7.06106541E+02
        12   18       1.60658341E-01  1.34943225E+04  7.58527196E+07  1.37708988E-10  7.58662140E+07
        13   15       1.00914854E-03  7.05980938E+02  1.25595147E-01  1.39192094E-13  7.06106534E+02
        13   17       1.60658343E-01  7.58527205E+07  1.34943225E+04  2.53171523E-09  7.58662149E+07
        14   16       1.00914854E-03  7.05980938E+02  1.25595147E-01  1.39192094E-13  7.06106534E+02
        14   18       1.60658343E-01  7.58527205E+07  1.34943225E+04  2.53171523E-09  7.58662149E+07
        15   17       1.61712591E-01  2.31269791E-11  1.01263696E-10  7.05981974E+07  7.05981974E+07
        16   18       1.61712591E-01  2.31269791E-11  1.01263696E-10  7.05981974E+07  7.05981974E+07
     -----------------------------------------------------------------------------------------------
--

++ Length and velocity gauge comparison (SO states):

 --------------------------------------------------
 A comparison between the dipole oscillator strengths in 
 length and velocity gauge will be performed

 All dipole oscillator differences above the tolerance of   0.10000000000000001       will be printed 

 Due to basis set deficiency these oscillator may be problematic 

 The tolerance is defined as ABS(1-O_l/O_v) 
 O_l : dipole oscillator strength in length gauge
 O_p : dipole oscillator strength in velocity gauge
 --------------------------------------------------

  Problematic transitions have been found

      From   To       Difference (%) Osc. st. (len.) Osc. st. (vel.)
     ---------------------------------------------------------------
         1    5            20.292000  3.20540857E-04  4.02143896E-04
         1    7            20.859930  3.32462704E-04  4.20094022E-04
         1    9            67.848900  2.09655889E-05  6.52095547E-05
         1   17            57.938917  2.35570477E-04  1.49152902E-04
         2    6            20.292000  3.20540857E-04  4.02143896E-04
         2    8            20.859930  3.32462704E-04  4.20094022E-04
         2   10            67.848900  2.09655889E-05  6.52095547E-05
         2   18            57.938917  2.35570477E-04  1.49152902E-04
         3    5            20.859934  3.32462710E-04  4.20094050E-04
         3    7            20.291996  3.20540851E-04  4.02143868E-04
         3    9            67.848900  2.09655882E-05  6.52095518E-05
         3   17            57.938917  2.35570475E-04  1.49152899E-04
         4    6            20.859934  3.32462710E-04  4.20094050E-04
         4    8            20.291996  3.20540851E-04  4.02143868E-04
         4   10            67.848900  2.09655882E-05  6.52095518E-05
         4   18            57.938917  2.35570475E-04  1.49152899E-04
         5    9            93.733409  2.98706878E-05  4.76665667E-04
         5   11            13.105642  5.63258940E-02  6.48211173E-02
         5   13            12.812172  1.22794330E-02  1.40838846E-02
         5   15            12.937077  4.90977845E-02  5.63934485E-02
         5   17            85.943400  6.50998357E-03  3.50105654E-03
         6   10            93.733409  2.98706878E-05  4.76665667E-04
         6   12            13.105642  5.63258940E-02  6.48211173E-02
         6   14            12.812172  1.22794330E-02  1.40838846E-02
         6   16            12.937077  4.90977845E-02  5.63934485E-02
         6   18            85.943400  6.50998357E-03  3.50105654E-03
         7    9            93.733410  2.98706805E-05  4.76665647E-04
         7   11            12.812172  1.22794308E-02  1.40838819E-02
         7   13            13.105642  5.63258968E-02  6.48211208E-02
         7   15            12.937078  4.90977839E-02  5.63934481E-02
         7   17            85.943398  6.50998360E-03  3.50105659E-03
         8   10            93.733410  2.98706805E-05  4.76665647E-04
         8   12            12.812172  1.22794308E-02  1.40838819E-02
         8   14            13.105642  5.63258968E-02  6.48211208E-02
         8   16            12.937078  4.90977839E-02  5.63934481E-02
         8   18            85.943398  6.50998360E-03  3.50105659E-03
         9   15            17.355854  7.00462637E-02  8.47564732E-02
         9   17            61.723143  1.37457727E-02  8.49957063E-03
        10   16            17.355854  7.00462637E-02  8.47564732E-02
        10   18            61.723143  1.37457727E-02  8.49957063E-03
        11   15            97.284842  2.73999822E-05  1.00914855E-03
        11   17            35.960378  1.02884995E-01  1.60658341E-01
        12   16            97.284842  2.73999822E-05  1.00914855E-03
        12   18            35.960378  1.02884995E-01  1.60658341E-01
        13   15            97.284842  2.73999795E-05  1.00914854E-03
        13   17            35.960378  1.02884996E-01  1.60658343E-01
        14   16            97.284842  2.73999795E-05  1.00914854E-03
        14   18            35.960378  1.02884996E-01  1.60658343E-01
        15   17            39.233557  9.82669892E-02  1.61712591E-01
        16   18            39.233557  9.82669892E-02  1.61712591E-01
     ---------------------------------------------------------------

 Number of problematic transitions =                    50

--

 Electric-dipole - electric-octupole not included
++ I/O STATISTICS
 
  I. General I/O information
  - - - - - - - - - - - - - - - - - - - - - - - - - - - - - - - - - - - - - - - - - - -
  Unit  Name          Flsize      Write/Read            MBytes           Write/Read
                      (MBytes)       Calls              In/Out           Time, sec.
  - - - - - - - - - - - - - - - - - - - - - - - - - - - - - - - - - - - - - - - - - - -
   1  SCRATCH           0.00 .       9/      45 .      0.0/      0.0 .       0/       0
   2  ANNI              0.00 .       0/       0 .      0.0/      0.0 .       0/       0
   3  RUNFILE          15.28 .     322/    9923 .      2.3/     72.0 .       0/       0
   4  ONEINT            6.58 .       0/   28767 .      0.0/   3777.9 .       0/       0
   5  JOBIPH            7.71 .       0/      92 .      0.0/      0.9 .       0/       0
   6  ORDINT          771.03 .       1/    6169 .      0.0/   1542.0 .       0/       0
  - - - - - - - - - - - - - - - - - - - - - - - - - - - - - - - - - - - - - - - - - - -
   *  TOTAL           800.61 .     332/   44996 .      2.3/   5392.8 .       0/       0
  - - - - - - - - - - - - - - - - - - - - - - - - - - - - - - - - - - - - - - - - - - -
 
  II. I/O Access Patterns
  - - - - - - - - - - - - - - - - - - - -
  Unit  Name               % of random
                         Write/Read calls
  - - - - - - - - - - - - - - - - - - - -
   1  SCRATCH             88.9/ 100.0
   2  ANNI                 0.0/   0.0
   3  RUNFILE             28.6/  10.8
   4  ONEINT               0.0/  13.4
   5  JOBIPH               0.0/  76.1
   6  ORDINT             100.0/   0.0
  - - - - - - - - - - - - - - - - - - - -
--
--- Stop Module: rassi at Thu Jan  9 20:14:53 2025 /rc=_RC_ALL_IS_WELL_ ---
*** files: xmldump
    saved to directory /home4/s4752295/Internship/Initial_simulations/Point_charge_model/1_electron/active_space_9_non_rel/W/varying_bond_length
--- Module rassi spent 4 seconds ---

.##################.
.# Happy landing! #.
.##################.

    Timing: Wall=130.08 User=103.30 System=22.56

###############################################################################
Hbrk Cluster
Job 14548078 for user s4752295
Finished at: Thu Jan  9 20:14:53 CET 2025

Job details:
============

Job ID                         : 14548078
Name                           : W_no_c_light
User                           : s4752295
Partition                      : regularmedium
Nodes                          : node99
Number of Nodes                : 1
Cores                          : 1
Number of Tasks                : 1
State                          : RUNNING  
Submit                         : 2025-01-09T20:12:37
Start                          : 2025-01-09T20:12:38
End                            : --
Reserved walltime              : 15:00:00
Used walltime                  : 00:02:15
Used CPU time                  : -- 
% User (Computation)           : --
% System (I/O)                 : --
Total memory reserved          : 25000M
Maximum memory used            : --

Acknowledgements:
=================

Please see this page for information about acknowledging Hbrk in your publications:

https://wiki.hpc.rug.nl/habrok/introduction/scientific_output

################################################################################
