   This run of MOLCAS is using the pymolcas driver

                             OPE
                             OPE          NMOL  CASOP  ENMOLC A   SO
                 OPE        NMOLC        AS  OP EN  MO LC     AS  OP
                OPENM       OL CA        SO  PE NM  OL CA     SOP EN
                OP EN      MO   LC       AS  OP ENMOL  CASO   PENMOL
                OP  EN     MO   LC       AS  OP EN     MO     LC ASO
               OP   E  NMOL  C  AS       OP  EN MO     LC     AS  OP
               OP  E   NMO   LC AS        OPEN  MO     LCASOP EN   M
               O  PEN   MO  LCA  SO
            OPE   NMO   L   CAS    OP
        OPENMOL  CASOP     ENMOL   CASOPE
     OPENMOLCA   SOPENMOLCASOPEN   MOLCASOPE
    OPENMOLCAS   OP           EN   MOL    CAS
    OPENMOLCAS       OP  ENM        O     LCA
    OPENMOLCAS    OPEN  MOLCASO     P  E  NMO
    OPENMOLCAS     OP               E  N  MOL
    OPENMOLCA   SO           PENM   O  L  CAS    OPEN    MO    LCAS
    OPENMOLCA   SOP           ENM   O  L  CAS   OP  EN  MOLC  AS   O
    OPENMOLCA   SOPE           NM      O  LCA   S      OP  EN MO
    OPENMOLC                AS         O  PEN   M      OL  CA  SOPE
    OPENMO        LCASOPE  NMOL        C  ASO   P      ENMOLC     AS
    OPE     NMO      LCA  SO     P     E   NM   OL  CA SO  PE N   MO
          OPENMOLCA            SOPE   NMO        LCAS  O    P  ENMO
     OPENMOLCASOPENMOLCASOPENMOLCASOPENMOLCA
        OPENMOLCASOPENMOLCASOPENMOLCASOPE
            OPENMOLCASOPENMOLCASOPENM
               OPENMOLCASOPENMOLCA        version: o91e1abe7de707b ?
                   OPENMOLCASO
                       OPE                tag:

 OpenMolcas is free software; you can redistribute it and/or modify it
 under the terms of the GNU Lesser General Public License version 2.1.
 OpenMolcas is distributed in the hope that it will be useful, but it
 is provided "as is" and without any express or implied warranties.
 For more details see the full text of the license in the file
 LICENSE or in <http://www.gnu.org/licenses/>.

                 Copyright (C) The OpenMolcas Authors
           For the author list and the recommended citation,
                   consult the file CONTRIBUTORS.md

           *************************************************
           * pymolcas version py2.10                       *
           *   build 3068ae8b88c9345ec6cfef6fef7f1169      *
           *   (after the EMIL interpreter by V. Veryazov) *
           *************************************************

configuration info
------------------
Host name: login1 (Linux)
C Compiler ID: GNU
C flags: -std=gnu99
Fortran Compiler ID: GNU
Fortran flags: -fno-aggressive-loop-optimizations -cpp -fdefault-integer-8 -fmax-stack-var-size=1048576
Definitions: _MOLCAS_;_I8_;_LINUX_;_MKL_
Parallel: OFF (GA=OFF)


   ---------------------------------------------------------------------------------------------------------------------------------------------
  |
  |           Project: tungsten_so_cf
  |    Submitted from: /home4/s4752295/Internship/Initial_simulations/Point_charge_model/1_electron/active_space_9_non_rel/W/varying_bond_length
  |      Scratch area: /tmp/tungsten_so_cf
  |   Save outputs to: /home4/s4752295/Internship/Initial_simulations/Point_charge_model/1_electron/active_space_9_non_rel/W/varying_bond_length
  |            Molcas: /home4/s4752295/Internship/Molcas/recomp_try/OpenMolcas-master/build
  |
  | Scratch area is empty
  |
  |    MOLCAS_DRIVER = /home4/s4752295/Internship/Molcas/bin/pymolcas
  |    MOLCAS_NPROCS = 1
  |    MOLCAS_SOURCE = /home4/s4752295/Internship/Molcas/recomp_try/OpenMolcas-master
  | MOLCAS_STRUCTURE = 0
  |
   ---------------------------------------------------------------------------------------------------------------------------------------------

++ ---------   Input file   ---------

&SEWARD
AMFi

CLIG
$R

Basis Set
W.ANO-rcc.Roos.24s21p15d11f4g2h.11s10p9d8f4g2h.
Spherical d
W            0.0        0.0     0.0
End of Basis

Xfield

4
0.000000,  0.0000,  0.270       -1.0
0.233827,  0.0000, -0.135       -1.0
-0.116913,  0.2025, -0.135      -1.0
-0.116913, -0.2025, -0.135      -1.0

End of input

&SCF
Occupied
34
Iterations
   50  100
End of Input

&RASSCF
LumOrb
Symmetry
1
Spin
2
Nactel
1 0 0
CIRoot
9 9 1
inactive
34
ras2
9
End of Input

>>> COPY tungsten_so_cf.JobIph $SLURM_SUBMIT_DIR/tungsten_so_cf.doublet.JobIph

>>> COPY $SLURM_SUBMIT_DIR/tungsten_so_cf.doublet.JobIph ./JOB002

&RASSI
NROFJobIph
1 All
SpinOrbit
End of Input

EOF

-- ----------------------------------

--- Start Module: seward at Thu Jan  9 20:51:23 2025 ---

()()()()()()()()()()()()()()()()()()()()()()()()()()()()()()()()()()()()()()()()()()()()()()()()()()

                                              &SEWARD

                                   only a single process is used
                       available to each process: 4.1 GB of memory, 1 thread?
                                            pid: 1576858
()()()()()()()()()()()()()()()()()()()()()()()()()()()()()()()()()()()()()()()()()()()()()()()()()()

 The speed of LIGHT in this CALCULATION =   137.03599917700001     
               SEWARD will generate:
                  Multipole Moment integrals up to order  2
                  Kinetic Energy integrals
                  Nuclear Attraction integrals (point charge)
                  One-Electron Hamiltonian integrals
                  Velocity integrals
                  Relativistic Douglas-Kroll-Hess integrals:
                    - Parametrization         : EXP
                    - DKH order of Hamiltonian: 2
                    - DKH order of Properties : 0
                         - multipole moment operators
                         - electric potential operators
                         - contact operators
                  External field from     4 point(s) added to the one-electron Hamiltonian
                  Orbital angular momentum around ( 0.0000  0.0000  0.0000 )
                  Velocity quadrupole around ( 0.0000  0.0000  0.0000 )
                  Atomic mean-field integrals
                  Two-Electron Repulsion integrals

                   Integrals are discarded if absolute value <: 0.10E-13
                   Integral cutoff threshold is set to       <: 0.10E-15

++    Symmetry information:
      ---------------------

                    Character Table for C1 

                             E  
                    a        1  x, y, xy, Rz, z, xz, Ry, yz, Rx, I
--


++    Basis set information:
      ----------------------


      Basis set label: W.ANO-RCC.ROOS.24S21P15D11F4G2H.11S10P9D8F4G2H......

      Electronic valence basis set:
      ------------------
      Associated Effective Charge  74.000000 au
      Associated Actual Charge     74.000000 au
      Nuclear Model: Point charge

      Shell  nPrim  nBasis  Cartesian Spherical Contaminant
         s      24      11        X                  
         p      21      10        X                  
         d      15       9                 X         
         f      11       8                 X         
         g       4       4                 X         
         h       2       2                 X         
--


++    Molecular structure info:
      -------------------------

                    ************************************************ 
                    **** Cartesian Coordinates / Bohr, Angstrom **** 
                    ************************************************ 

     Center  Label                x              y              z                     x              y              z
        1      W                0.000000       0.000000       0.000000              0.000000       0.000000       0.000000
--


++    Operator info:
      --------------


  Net charge from external field:   -4.0000000000000000     
--


            Nuclear Potential Energy              0.00000000 au

                    Nuclear-External Field Potential Energy   -1096.29654994 au
                    External Field Potential Energy              13.82241410 au 


            Total Nuclear Potential Energy          -1096.29654994 au


      Basis set specifications :
      Symmetry species         a  
      Basis functions          200

 Sorry, Molden does not know how to handle
 functions with angular momentum larger than g
Note: The following floating-point exceptions are signalling: IEEE_UNDERFLOW_FLAG IEEE_DENORMAL
--- Stop Module: seward at Thu Jan  9 20:51:42 2025 /rc=_RC_ALL_IS_WELL_ ---
*** files: tungsten_so_cf.GssOrb xmldump
    saved to directory /home4/s4752295/Internship/Initial_simulations/Point_charge_model/1_electron/active_space_9_non_rel/W/varying_bond_length
--- Module seward spent 18 seconds ---

*** symbolic link created: INPORB -> tungsten_so_cf.GssOrb
--- Start Module: scf at Thu Jan  9 20:51:42 2025 ---

()()()()()()()()()()()()()()()()()()()()()()()()()()()()()()()()()()()()()()()()()()()()()()()()()()

                                                &SCF

                                   only a single process is used
                       available to each process: 4.1 GB of memory, 1 thread?
                                            pid: 1577283
()()()()()()()()()()()()()()()()()()()()()()()()()()()()()()()()()()()()()()()()()()()()()()()()()()

++    Input section:
      --------------

      Header of the integral files:
      
       Integrals generated by seward 4.2.0  , Thu Jan  9 20:51:24 2025


      Cartesian coordinates in Angstrom:
      -----------------------------------------------------
      No.  Label        X            Y            Z        
      -----------------------------------------------------
       1   W          0.00000000   0.00000000   0.00000000
      -----------------------------------------------------
      Nuclear repulsion energy =-1096.29654994
--

++    Orbital specifications:
      -----------------------

      Symmetry species               1
                                     a
      Frozen orbitals                0
      Occupied orbitals             34
      Secondary orbitals           166
      Deleted orbitals               0
      Total number of orbitals     200
      Number of basis functions    200
--

      Molecular charge                           6.000

++    Optimization specifications:
      ----------------------------

      SCF Algorithm: Conventional
      Minimized density differences are used
      Number of density matrices in core                5
      Maximum number of NDDO SCF iterations            50
      Maximum number of HF SCF iterations             100
      Threshold for SCF energy change            0.10E-08
      Threshold for density matrix               0.10E-03
      Threshold for Fock matrix                  0.15E-03
      Threshold for linear dependence            0.10E-08
      Threshold at which DIIS is turned on       0.15E+00
      Threshold at which QNR/C2DIIS is turned on 0.75E-01
      Threshold for Norm(delta) (QNR/C2DIIS)     0.20E-04
      DIIS extrapolation of the SCF procedure
      All orbitals punched on: SCFORB
--

      Detected guessorb starting orbitals                                             


++ Convergence information
                                   SCF        iterations: Energy and convergence statistics

Iter     Tot. SCF        One-elec.       Two-elec.     Energy      Max Dij or  Max Fij      DNorm      TNorm      AccCon     Time
         Energy          Energy          Energy        Change      Delta Norm                                                in Sec.

 The total and one-electron energies are shifted by a value of     16000. a.u.

   1  -504.427572476 -5201.450610976  5793.319588443   0.00E+00    0.44E+00*   0.20E+01*    0.12E+02   0.15E+04   None         1.
   2  -413.928718133 -3627.152199513  4309.520031324   0.90E+02*   0.46E+00*   0.62E+00*    0.85E+01   0.13E+04   EDIIS        1.
   3  -516.083400382 -4709.195304945  5289.408454506  -0.10E+03*   0.23E+00*   0.66E+00*    0.43E+01   0.15E+04   EDIIS        1.
   4  -516.435532156 -4995.073879318  5574.934897105  -0.35E+00*   0.51E+00*   0.26E+00*    0.84E+00   0.15E+04   EDIIS        1.
   5  -518.338554176 -4775.450034216  5353.408029983  -0.19E+01*   0.16E+00*   0.16E+00*    0.16E+01   0.15E+04   EDIIS        1.
   6  -518.431904604 -4884.447781535  5462.312426874  -0.93E-01*   0.26E+00*   0.12E+00*    0.64E+00   0.15E+04   EDIIS        1.
   7  -518.725853263 -4813.394113524  5390.964810204  -0.29E+00*   0.95E-01*   0.69E-01*    0.42E+00   0.15E+04   EDIIS        1.
   8  -518.729404483 -4847.800725461  5425.367870921  -0.36E-02*   0.16E+00*   0.62E-01*    0.11E+00   0.15E+04   EDIIS        1.
   9  -518.782875095 -4812.142862026  5389.656536874  -0.53E-01*   0.61E-01*   0.42E-01*    0.43E-01   0.15E+04   EDIIS        1.
  10  -518.795301949 -4833.986743997  5411.487991991  -0.12E-01*   0.72E-01*   0.15E-01*    0.21E-01   0.15E+04   c2DIIS       1.
  11  -518.809760770 -4827.011580999  5404.498370173  -0.14E-01*   0.73E-01*   0.26E-01*    0.63E-02   0.15E+04   QNRc2DIIS    1.
  12  -518.812003174 -4813.290087055  5390.774633824  -0.22E-02*   0.39E-01*   0.37E-01*    0.54E-02   0.15E+04   QNRc2DIIS    1.
  13  -518.820949568 -4819.657953827  5397.133554202  -0.89E-02*   0.54E-01*   0.70E-02*    0.51E-02   0.15E+04   QNRc2DIIS    1.
  14  -518.822808213 -4820.760818775  5398.234560505  -0.19E-02*   0.16E-01*   0.47E-02*    0.13E-01   0.15E+04   QNRc2DIIS    1.
  15  -518.822974453 -4821.102234786  5398.575810276  -0.17E-03*   0.11E-01*   0.48E-02*    0.24E-02   0.15E+04   QNRc2DIIS    1.
  16  -518.822870945 -4821.342944595  5398.816623593   0.10E-03*   0.23E-01*   0.57E-02*    0.25E-02   0.15E+04   QNRc2DIIS    1.
  17  -518.823540744 -4820.808838873  5398.281848072  -0.67E-03*   0.12E+00*   0.47E-02*    0.37E-02   0.15E+04   QNRc2DIIS    1.
  18  -518.820788919 -4820.126644511  5397.602405535   0.28E-02*   0.41E+00*   0.65E-02*    0.24E-01   0.15E+04   QNRc2DIIS    1.
  19  -518.825386778 -4821.969840131  5399.441003296  -0.46E-02*   0.16E+00*   0.10E-01*    0.49E-01   0.15E+04   QNRc2DIIS    1.
  20  -518.826053626 -4819.320837851  5396.791334169  -0.67E-03*   0.12E+00*   0.33E-02*    0.24E-01   0.15E+04   QNRc2DIIS    1.
  21  -518.823765818 -4819.149179264  5396.621963389   0.23E-02*   0.24E+00*   0.47E-02*    0.18E-01   0.15E+04   QNRc2DIIS    1.
  22  -518.827157934 -4819.526651503  5396.996043512  -0.34E-02*   0.96E-01*   0.14E-02*    0.13E-01   0.15E+04   QNRc2DIIS    1.
  23  -518.826780686 -4820.205489102  5397.675258359   0.38E-03*   0.20E+00*   0.29E-02*    0.78E-02   0.15E+04   QNRc2DIIS    1.
  24  -518.826295630 -4818.905034324  5396.375288637   0.49E-03*   0.83E-01*   0.30E-02*    0.13E-01   0.15E+04   QNRc2DIIS    1.
  25  -518.827132330 -4819.117393889  5396.586811502  -0.84E-03*   0.29E-01*   0.13E-02*    0.40E-02   0.15E+04   QNRc2DIIS    1.
  26  -518.826920166 -4818.999998975  5396.469628752   0.21E-03*   0.56E-01*   0.19E-02*    0.18E-02   0.15E+04   QNRc2DIIS    1.
  27  -518.827244633 -4819.261806413  5396.731111723  -0.32E-03*   0.12E-01*   0.52E-03*    0.19E-02   0.15E+04   QNRc2DIIS    1.
  28  -518.827265299 -4819.292451749  5396.761736393  -0.21E-04*   0.11E-01*   0.37E-03*    0.25E-02   0.15E+04   QNRc2DIIS    1.
  29  -518.827269228 -4819.386617991  5396.855898706  -0.39E-05*   0.38E-02*   0.36E-03*    0.20E-02   0.15E+04   QNRc2DIIS    1.
  30  -518.827271539 -4819.362445986  5396.831724390  -0.23E-05*   0.40E-02*   0.16E-03*    0.50E-03   0.15E+04   QNRc2DIIS    1.
  31  -518.827273791 -4819.378617216  5396.847893369  -0.23E-05*   0.10E-02*   0.55E-04     0.11E-02   0.15E+04   QNRc2DIIS    1.
  32  -518.827273986 -4819.380946497  5396.850222454  -0.20E-06*   0.73E-03*   0.50E-04     0.45E-03   0.15E+04   QNRc2DIIS    1.
  33  -518.827274064 -4819.378500763  5396.847776642  -0.78E-07*   0.31E-03*   0.49E-04     0.55E-03   0.15E+04   QNRc2DIIS    1.
  34  -518.827274103 -4819.374552019  5396.843827859  -0.39E-07*   0.83E-04*   0.16E-04     0.24E-03   0.15E+04   QNRc2DIIS    1.
  35  -518.827274110 -4819.374787442  5396.844063275  -0.72E-08*   0.22E-03*   0.16E-04     0.78E-04   0.15E+04   QNRc2DIIS    1.
  36  -518.827274122 -4819.375513451  5396.844789272  -0.12E-07*   0.25E-03*   0.21E-04     0.17E-03   0.15E+04   QNRc2DIIS    1.
  37  -518.827274135 -4819.376235160  5396.845510969  -0.13E-07*   0.72E-03*   0.21E-04     0.24E-03   0.15E+04   QNRc2DIIS    1.
  38  -518.827274166 -4819.377551068  5396.846826845  -0.31E-07*   0.53E-03*   0.15E-04     0.90E-01   0.15E+04   QNRc2DIIS    1.
  39  -518.827274182 -4819.377580011  5396.846855772  -0.16E-07*   0.41E-03*   0.15E-04     0.23E-02   0.15E+04   QNRc2DIIS    1.
  40  -518.827274198 -4819.375902186  5396.845177931  -0.16E-07*   0.10E-03*   0.10E-04     0.14E-02   0.15E+04   QNRc2DIIS    1.
  41  -518.827274200 -4819.375595304  5396.844871047  -0.22E-08*   0.14E-03*   0.70E-05     0.84E-01   0.15E+04   QNRc2DIIS    1.
  42  -518.827274203 -4819.376191692  5396.845467432  -0.29E-08*   0.21E-04*   0.23E-05     0.29E-01   0.15E+04   QNRc2DIIS    1.
  43  -518.827274203 -4819.376187858  5396.845463598  -0.23E-09    0.21E-04*   0.13E-05     0.15E+00   0.15E+04   QNRc2DIIS    1.
  44  -518.827274203 -4819.376101419  5396.845377159  -0.17E-09    0.96E-05    0.11E-05     0.29E-01   0.15E+04   QNRc2DIIS    1.

       Convergence after 44 Macro Iterations
--

 *****************************************************************************************************************************
 *                                                                                                                           *
 *                                             SCF/KS-DFT Program, Final results                                             *
 *                                                                                                                           *
 *                                                                                                                           *
 *                                                                                                                           *
 *                                                       Final Results                                                       *
 *                                                                                                                           *
 *****************************************************************************************************************************

::    Total SCF energy                             -16518.8272742034
      One-electron energy                          -20819.3761014189
      Two-electron energy                            5396.8453771586
      Nuclear repulsion energy                      -1096.2965499431
      Kinetic energy (interpolated)                 22345.2490508821
      Virial theorem                                    0.7392545609
      Total spin, S(S+1)                                0.0000000000
      Total spin, S                                     0.0000000000
      Max non-diagonal density matrix element           0.0000128506
      Max non-diagonal Fock matrix element              0.0000012149


      All orbitals with orbital energies smaller than  E(LUMO)+0.5 are printed

++    Molecular orbitals:
      -------------------

      Title: SCF orbitals

      Molecular orbitals for symmetry species 1: a  

          Some orbital energies have been scaled by powers of 10, the power is written right after the orbital index


          Orbital            1 (1)     2         3         4         5         6         7         8         9        10    
          Energy         -256.1546 -445.6056 -391.0082 -391.0082 -390.9195 -102.5295  -86.1850  -86.1850  -85.5162  -66.5831
          Occ. No.          2.0000    2.0000    2.0000    2.0000    2.0000    2.0000    2.0000    2.0000    2.0000    2.0000

        1 W      1s         1.0000    0.0000   -0.0000    0.0000   -0.0000   -0.0000    0.0000   -0.0000    0.0000   -0.0000
        2 W      2s        -0.0000    1.0000   -0.0000    0.0000   -0.0036    0.0004   -0.0000    0.0000   -0.0003   -0.0000
        3 W      3s         0.0000   -0.0004    0.0000   -0.0000    0.0002    0.9993    0.0000    0.0000   -0.0329   -0.0000
        4 W      4s        -0.0000    0.0001   -0.0000    0.0000   -0.0001    0.0030   -0.0000    0.0000    0.0003    0.0000
        5 W      5s         0.0000   -0.0001    0.0000   -0.0000    0.0000   -0.0005    0.0000   -0.0000   -0.0002   -0.0000
        6 W      6s        -0.0000    0.0000   -0.0000    0.0000   -0.0000    0.0001   -0.0000    0.0000    0.0001    0.0000
        7 W      7s         0.0000   -0.0000    0.0000   -0.0000    0.0000   -0.0001    0.0000   -0.0000   -0.0001   -0.0000
        8 W      8s        -0.0000    0.0000   -0.0000    0.0000   -0.0000    0.0002   -0.0000    0.0000    0.0002    0.0000
        9 W      9s         0.0000   -0.0001    0.0000   -0.0000    0.0000   -0.0002    0.0000   -0.0000   -0.0002   -0.0000
       10 W     10s        -0.0000    0.0001   -0.0000    0.0000   -0.0000    0.0000   -0.0000    0.0000    0.0003    0.0000
       11 W     11s         0.0000   -0.0001    0.0000   -0.0000    0.0000    0.0008    0.0000   -0.0000   -0.0006   -0.0000
       12 W      2px       -0.0000   -0.0000    0.9920   -0.1266   -0.0000    0.0000    0.0003   -0.0000   -0.0000   -0.0001
       13 W      3px        0.0000   -0.0000   -0.0004    0.0000    0.0000   -0.0000    0.9955   -0.0769   -0.0000   -0.0004
       14 W      4px       -0.0000   -0.0000    0.0001   -0.0000    0.0000   -0.0000    0.0040   -0.0003    0.0000   -0.0004
       15 W      5px        0.0000   -0.0000   -0.0000    0.0000   -0.0000    0.0000   -0.0007    0.0001   -0.0000    0.0001
       16 W      6px       -0.0000   -0.0000    0.0000   -0.0000    0.0000   -0.0000    0.0003   -0.0000   -0.0000   -0.0001
       17 W      7px        0.0000    0.0000   -0.0001    0.0000   -0.0000    0.0000   -0.0007    0.0001   -0.0000    0.0002
       18 W      8px       -0.0000   -0.0000    0.0001   -0.0000    0.0000   -0.0000    0.0005   -0.0000    0.0000   -0.0002
       19 W      9px        0.0000    0.0000   -0.0001    0.0000   -0.0000    0.0000   -0.0002    0.0000   -0.0000    0.0002
       20 W     10px       -0.0000   -0.0000    0.0001   -0.0000    0.0000   -0.0000   -0.0001    0.0000    0.0000   -0.0002
       21 W     11px        0.0000    0.0000   -0.0001    0.0000    0.0000    0.0000    0.0013   -0.0001   -0.0000    0.0003
       22 W      2py       -0.0000   -0.0000    0.1266    0.9920    0.0000    0.0000    0.0000    0.0003    0.0000   -0.0000
       23 W      3py        0.0000   -0.0000   -0.0000   -0.0004   -0.0000   -0.0000    0.0769    0.9955    0.0000   -0.0001
       24 W      4py       -0.0000    0.0000    0.0000    0.0001    0.0000   -0.0000    0.0003    0.0040    0.0000   -0.0001
       25 W      5py        0.0000   -0.0000   -0.0000   -0.0000    0.0000   -0.0000   -0.0001   -0.0007   -0.0000    0.0000
       26 W      6py        0.0000   -0.0000    0.0000    0.0000   -0.0000    0.0000    0.0000    0.0003    0.0000   -0.0000
       27 W      7py       -0.0000    0.0000   -0.0000   -0.0001   -0.0000   -0.0000   -0.0001   -0.0007   -0.0000    0.0000
       28 W      8py        0.0000   -0.0000    0.0000    0.0001    0.0000    0.0000    0.0000    0.0005    0.0000   -0.0000
       29 W      9py       -0.0000    0.0000   -0.0000   -0.0001   -0.0000   -0.0000   -0.0000   -0.0002    0.0000    0.0001
       30 W     10py        0.0000   -0.0000    0.0000    0.0001    0.0000    0.0000   -0.0000   -0.0001   -0.0000   -0.0001
       31 W     11py       -0.0000    0.0000   -0.0000   -0.0001   -0.0000   -0.0000    0.0001    0.0013    0.0000    0.0001
       32 W      2pz        0.0000    0.0036    0.0000   -0.0000    1.0000   -0.0002    0.0000   -0.0000    0.0007    0.0000
       33 W      3pz       -0.0000    0.0002   -0.0000    0.0000   -0.0007    0.0326    0.0000   -0.0000    0.9991    0.0000
       34 W      4pz        0.0000   -0.0001    0.0000   -0.0000    0.0002    0.0002    0.0000   -0.0000    0.0034    0.0000
       35 W      5pz       -0.0000    0.0000   -0.0000    0.0000   -0.0001   -0.0001   -0.0000   -0.0000   -0.0004   -0.0000
       36 W      6pz        0.0000   -0.0000    0.0000   -0.0000    0.0000    0.0001    0.0000    0.0000    0.0001    0.0000
       37 W      7pz       -0.0000    0.0000   -0.0000    0.0000   -0.0001   -0.0002   -0.0000   -0.0000   -0.0002   -0.0000
       38 W      8pz        0.0000   -0.0000    0.0000   -0.0000    0.0001    0.0002    0.0000   -0.0000   -0.0001    0.0000
       39 W      9pz       -0.0000    0.0000   -0.0000    0.0000   -0.0001   -0.0003   -0.0000    0.0000    0.0004   -0.0000
       40 W     10pz        0.0000   -0.0000    0.0000   -0.0000    0.0001    0.0003    0.0000   -0.0000   -0.0009    0.0000
       41 W     11pz       -0.0000    0.0001   -0.0000    0.0000   -0.0001   -0.0006   -0.0000   -0.0000    0.0026   -0.0000
       42 W      3d2-       0.0000    0.0000    0.0000    0.0003    0.0000    0.0000    0.0022    0.0287    0.0000   -0.2261
       43 W      4d2-      -0.0000   -0.0000   -0.0000   -0.0001   -0.0000    0.0000    0.0001    0.0018    0.0000   -0.0011
       44 W      5d2-       0.0000    0.0000    0.0000    0.0000    0.0000   -0.0000   -0.0000   -0.0004   -0.0000    0.0002
       45 W      6d2-      -0.0000   -0.0000   -0.0000   -0.0000   -0.0000    0.0000    0.0000    0.0006    0.0000   -0.0002
       46 W      7d2-       0.0000    0.0000    0.0000    0.0000    0.0000   -0.0000   -0.0001   -0.0009   -0.0000    0.0003
       47 W      8d2-      -0.0000   -0.0000   -0.0000   -0.0000   -0.0000    0.0000    0.0001    0.0011    0.0000   -0.0003
       48 W      9d2-       0.0000    0.0000    0.0000    0.0000    0.0000   -0.0000   -0.0001   -0.0013   -0.0000    0.0002
       49 W     10d2-      -0.0000   -0.0000   -0.0000   -0.0000   -0.0000    0.0000    0.0001    0.0017    0.0000   -0.0001
       50 W     11d2-       0.0000    0.0000   -0.0000   -0.0000    0.0000   -0.0000   -0.0001   -0.0019   -0.0000   -0.0002
       51 W      3d1-      -0.0000   -0.0000    0.0001    0.0007    0.0000   -0.0000    0.0035    0.0459    0.0000    0.1439
       52 W      4d1-      -0.0000    0.0000   -0.0000   -0.0002   -0.0000   -0.0000    0.0002    0.0024    0.0000    0.0008
       53 W      5d1-      -0.0000   -0.0000    0.0000    0.0000    0.0000    0.0000   -0.0000   -0.0006   -0.0000   -0.0001
       54 W      6d1-       0.0000    0.0000   -0.0000   -0.0000   -0.0000   -0.0000    0.0001    0.0009    0.0000    0.0002
       55 W      7d1-      -0.0000   -0.0000    0.0000    0.0001    0.0000    0.0000   -0.0001   -0.0012   -0.0000   -0.0002
       56 W      8d1-      -0.0000    0.0000   -0.0000   -0.0001   -0.0000   -0.0000    0.0001    0.0015    0.0000    0.0002
       57 W      9d1-       0.0000   -0.0000    0.0000    0.0001    0.0000    0.0000   -0.0001   -0.0018   -0.0000   -0.0002
       58 W     10d1-      -0.0000    0.0000   -0.0000   -0.0001   -0.0000   -0.0000    0.0002    0.0024    0.0000    0.0001
       59 W     11d1-       0.0000   -0.0000    0.0000    0.0001    0.0000    0.0000   -0.0002   -0.0027   -0.0000    0.0000
       60 W      3d0       -0.0000   -0.0003    0.0000    0.0000   -0.0000   -0.0113    0.0000    0.0000   -0.0266   -0.0000
       61 W      4d0        0.0000    0.0001   -0.0000    0.0000   -0.0000   -0.0008    0.0000    0.0000   -0.0022   -0.0000
       62 W      5d0       -0.0000   -0.0000    0.0000   -0.0000    0.0000    0.0002   -0.0000   -0.0000    0.0006    0.0000
       63 W      6d0        0.0000    0.0000   -0.0000    0.0000   -0.0000   -0.0003    0.0000    0.0000   -0.0008   -0.0000
       64 W      7d0       -0.0000   -0.0000    0.0000   -0.0000    0.0000    0.0004   -0.0000   -0.0000    0.0011    0.0000
       65 W      8d0        0.0000    0.0000   -0.0000    0.0000   -0.0000   -0.0006    0.0000    0.0000   -0.0014   -0.0000
       66 W      9d0       -0.0000   -0.0000    0.0000   -0.0000    0.0000    0.0007   -0.0000   -0.0000    0.0016   -0.0000
       67 W     10d0        0.0000    0.0000   -0.0000    0.0000   -0.0001   -0.0010    0.0000    0.0000   -0.0021    0.0000
       68 W     11d0       -0.0000   -0.0000    0.0000   -0.0000    0.0001    0.0012   -0.0000   -0.0000    0.0022   -0.0000
       69 W      3d1+      -0.0000    0.0000    0.0007   -0.0001   -0.0000    0.0000    0.0459   -0.0035   -0.0000    0.5173
       70 W      4d1+       0.0000   -0.0000   -0.0002    0.0000    0.0000    0.0000    0.0024   -0.0002   -0.0000    0.0029
       71 W      5d1+      -0.0000    0.0000    0.0000   -0.0000   -0.0000   -0.0000   -0.0006    0.0000    0.0000   -0.0005
       72 W      6d1+       0.0000   -0.0000   -0.0000    0.0000    0.0000    0.0000    0.0009   -0.0001   -0.0000    0.0006
       73 W      7d1+      -0.0000    0.0000    0.0001   -0.0000   -0.0000   -0.0000   -0.0012    0.0001    0.0000   -0.0008
       74 W      8d1+       0.0000   -0.0000   -0.0001    0.0000    0.0000    0.0000    0.0015   -0.0001   -0.0000    0.0008
       75 W      9d1+      -0.0000    0.0000    0.0001   -0.0000   -0.0000   -0.0000   -0.0018    0.0001    0.0000   -0.0007
       76 W     10d1+       0.0000   -0.0000   -0.0001    0.0000    0.0000    0.0000    0.0024   -0.0002   -0.0000    0.0005
       77 W     11d1+      -0.0000    0.0000    0.0001   -0.0000   -0.0000   -0.0000   -0.0027    0.0002    0.0000    0.0001
       78 W      3d2+       0.0000    0.0000   -0.0003    0.0000   -0.0000    0.0000   -0.0287    0.0022   -0.0000    0.8127
       79 W      4d2+      -0.0000   -0.0000    0.0001   -0.0000    0.0000    0.0000   -0.0018    0.0001    0.0000    0.0039
       80 W      5d2+       0.0000    0.0000   -0.0000    0.0000   -0.0000   -0.0000    0.0004   -0.0000    0.0000   -0.0006
       81 W      6d2+      -0.0000   -0.0000    0.0000   -0.0000    0.0000    0.0000   -0.0006    0.0000   -0.0000    0.0008
       82 W      7d2+       0.0000    0.0000   -0.0000    0.0000   -0.0000   -0.0000    0.0009   -0.0001    0.0000   -0.0010
       83 W      8d2+      -0.0000   -0.0000    0.0000   -0.0000    0.0000    0.0000   -0.0011    0.0001   -0.0000    0.0009
       84 W      9d2+       0.0000    0.0000   -0.0000    0.0000   -0.0000   -0.0000    0.0013   -0.0001    0.0000   -0.0007
       85 W     10d2+      -0.0000   -0.0000    0.0000   -0.0000    0.0000    0.0000   -0.0017    0.0001   -0.0000    0.0003
       86 W     11d2+       0.0000    0.0000    0.0000   -0.0000    0.0000   -0.0000    0.0019   -0.0001    0.0000    0.0007
       87 W      4f3-      -0.0000   -0.0000    0.0000    0.0000   -0.0000   -0.0000    0.0000    0.0000   -0.0000    0.0000
       88 W      5f3-      -0.0000    0.0000   -0.0000   -0.0000    0.0000    0.0000   -0.0000   -0.0000    0.0000   -0.0000
       89 W      6f3-      -0.0000   -0.0000    0.0000    0.0000   -0.0000   -0.0000    0.0000    0.0000   -0.0000    0.0000
       90 W      7f3-       0.0000    0.0000   -0.0000   -0.0000   -0.0000    0.0000   -0.0000   -0.0000    0.0000   -0.0000
       91 W      8f3-      -0.0000   -0.0000    0.0000    0.0000    0.0000   -0.0000    0.0000    0.0000   -0.0000    0.0000
       92 W      9f3-       0.0000    0.0000   -0.0000   -0.0000   -0.0000    0.0000   -0.0000   -0.0000    0.0000   -0.0000
       93 W     10f3-      -0.0000   -0.0000    0.0000    0.0000    0.0000   -0.0000    0.0000    0.0000   -0.0000   -0.0000
       94 W     11f3-       0.0000    0.0000   -0.0000   -0.0000   -0.0000    0.0000   -0.0000   -0.0000    0.0000    0.0000
       95 W      4f2-       0.0000    0.0000   -0.0000   -0.0000    0.0000    0.0000   -0.0003   -0.0032    0.0000   -0.0010
       96 W      5f2-      -0.0000   -0.0000    0.0000    0.0000   -0.0000   -0.0000    0.0002    0.0023   -0.0000    0.0007
       97 W      6f2-       0.0000    0.0000   -0.0000   -0.0000    0.0000    0.0000   -0.0002   -0.0023    0.0000   -0.0007
       98 W      7f2-      -0.0000   -0.0000    0.0000    0.0000   -0.0000   -0.0000    0.0002    0.0020   -0.0000    0.0006
       99 W      8f2-       0.0000    0.0000   -0.0000   -0.0000    0.0000    0.0000   -0.0001   -0.0018    0.0000   -0.0005
      100 W      9f2-      -0.0000   -0.0000    0.0000    0.0000   -0.0000   -0.0000    0.0001    0.0014   -0.0000    0.0004
      101 W     10f2-       0.0000    0.0000   -0.0000   -0.0001    0.0000    0.0000   -0.0001   -0.0011    0.0000   -0.0003
      102 W     11f2-      -0.0000   -0.0000    0.0000    0.0001   -0.0000    0.0000    0.0000    0.0001   -0.0000    0.0002
      103 W      4f1-       0.0000   -0.0000   -0.0000   -0.0000   -0.0000   -0.0000   -0.0001   -0.0015   -0.0000    0.0004
      104 W      5f1-      -0.0000    0.0000    0.0000    0.0000    0.0000    0.0000    0.0001    0.0011    0.0000   -0.0003
      105 W      6f1-      -0.0000   -0.0000   -0.0000   -0.0000   -0.0000   -0.0000   -0.0001   -0.0011   -0.0000    0.0003
      106 W      7f1-       0.0000    0.0000    0.0000    0.0000    0.0000    0.0000    0.0001    0.0010    0.0000   -0.0002
      107 W      8f1-      -0.0000   -0.0000   -0.0000   -0.0000   -0.0000   -0.0000   -0.0001   -0.0009   -0.0000    0.0002
      108 W      9f1-       0.0000    0.0000    0.0000    0.0000    0.0000    0.0000    0.0001    0.0007    0.0000   -0.0002
      109 W     10f1-      -0.0000   -0.0000   -0.0000   -0.0000   -0.0000   -0.0000   -0.0000   -0.0006   -0.0000    0.0001
      110 W     11f1-       0.0000   -0.0000    0.0000    0.0001    0.0000    0.0000    0.0000    0.0002    0.0000   -0.0001
      111 W      4f0       -0.0000   -0.0001   -0.0000    0.0000   -0.0000   -0.0062   -0.0000    0.0000   -0.0022    0.0000
      112 W      5f0        0.0000    0.0001    0.0000   -0.0000    0.0000    0.0046    0.0000   -0.0000    0.0016   -0.0000
      113 W      6f0       -0.0000   -0.0001   -0.0000    0.0000   -0.0000   -0.0046   -0.0000    0.0000   -0.0015    0.0000
      114 W      7f0        0.0000    0.0001    0.0000   -0.0000    0.0000    0.0042    0.0000   -0.0000    0.0014   -0.0000
      115 W      8f0       -0.0000   -0.0001   -0.0000    0.0000   -0.0001   -0.0039   -0.0000    0.0000   -0.0013    0.0000
      116 W      9f0        0.0000    0.0001    0.0000   -0.0000    0.0001    0.0030    0.0000   -0.0000    0.0010   -0.0000
      117 W     10f0       -0.0000   -0.0001   -0.0000    0.0000   -0.0001   -0.0025   -0.0000    0.0000   -0.0008    0.0000
      118 W     11f0        0.0000    0.0002    0.0000   -0.0000    0.0001    0.0007   -0.0000   -0.0000    0.0003   -0.0000
      119 W      4f1+       0.0000    0.0000   -0.0000    0.0000    0.0000    0.0000   -0.0015    0.0001    0.0000    0.0014
      120 W      5f1+       0.0000   -0.0000    0.0000   -0.0000   -0.0000   -0.0000    0.0011   -0.0001   -0.0000   -0.0010
      121 W      6f1+       0.0000    0.0000   -0.0000    0.0000    0.0000    0.0000   -0.0011    0.0001    0.0000    0.0010
      122 W      7f1+      -0.0000   -0.0000    0.0000   -0.0000   -0.0000   -0.0000    0.0010   -0.0001   -0.0000   -0.0009
      123 W      8f1+       0.0000    0.0000   -0.0000    0.0000    0.0000    0.0000   -0.0009    0.0001    0.0000    0.0008
      124 W      9f1+      -0.0000   -0.0000    0.0000   -0.0000   -0.0000   -0.0000    0.0007   -0.0001   -0.0000   -0.0006
      125 W     10f1+       0.0000    0.0000   -0.0000    0.0000    0.0000    0.0000   -0.0006    0.0000   -0.0000    0.0005
      126 W     11f1+      -0.0000   -0.0000    0.0001   -0.0000   -0.0000   -0.0000    0.0002   -0.0000    0.0000   -0.0004
      127 W      4f2+      -0.0000   -0.0000    0.0000   -0.0000    0.0000   -0.0000    0.0032   -0.0003    0.0000    0.0036
      128 W      5f2+       0.0000    0.0000   -0.0000    0.0000   -0.0000    0.0000   -0.0023    0.0002   -0.0000   -0.0026
      129 W      6f2+      -0.0000   -0.0000    0.0000   -0.0000    0.0000   -0.0000    0.0023   -0.0002    0.0000    0.0025
      130 W      7f2+       0.0000    0.0000   -0.0000    0.0000   -0.0000    0.0000   -0.0020    0.0002   -0.0000   -0.0022
      131 W      8f2+      -0.0000   -0.0000    0.0000   -0.0000    0.0000   -0.0000    0.0018   -0.0001    0.0000    0.0020
      132 W      9f2+       0.0000    0.0000   -0.0000    0.0000   -0.0000    0.0000   -0.0014    0.0001   -0.0000   -0.0015
      133 W     10f2+      -0.0000   -0.0000    0.0001   -0.0000    0.0000   -0.0000    0.0011   -0.0001    0.0000    0.0013
      134 W     11f2+       0.0000    0.0000   -0.0001    0.0000   -0.0000    0.0000   -0.0001    0.0000   -0.0000   -0.0007
      135 W      4f3+      -0.0000   -0.0001    0.0000   -0.0000    0.0000   -0.0041    0.0000   -0.0000    0.0031   -0.0000
      136 W      5f3+       0.0000    0.0001   -0.0000    0.0000   -0.0000    0.0030   -0.0000    0.0000   -0.0022    0.0000
      137 W      6f3+      -0.0000   -0.0001    0.0000   -0.0000    0.0000   -0.0030    0.0000   -0.0000    0.0022   -0.0000
      138 W      7f3+       0.0000    0.0001   -0.0000    0.0000   -0.0000    0.0028   -0.0000    0.0000   -0.0020    0.0000
      139 W      8f3+      -0.0000   -0.0001    0.0000   -0.0000    0.0000   -0.0025    0.0000   -0.0000    0.0017   -0.0000
      140 W      9f3+       0.0000    0.0001   -0.0000    0.0000   -0.0000    0.0019   -0.0000    0.0000   -0.0013    0.0000
      141 W     10f3+      -0.0000   -0.0001    0.0000   -0.0000    0.0000   -0.0016    0.0000   -0.0000    0.0010   -0.0000
      142 W     11f3+       0.0000    0.0001   -0.0000    0.0000   -0.0000    0.0004   -0.0000    0.0000   -0.0001    0.0000
      143 W      5g4-      -0.0000    0.0000   -0.0000   -0.0000    0.0000   -0.0000   -0.0000   -0.0004   -0.0000    0.0000
      144 W      6g4-       0.0000   -0.0000    0.0000    0.0000   -0.0000    0.0000    0.0000    0.0004    0.0000   -0.0000
      145 W      7g4-      -0.0000    0.0000   -0.0000   -0.0000   -0.0000    0.0000   -0.0000   -0.0004   -0.0000    0.0000
      146 W      8g4-       0.0000   -0.0000    0.0000    0.0000    0.0000   -0.0000    0.0000    0.0003    0.0000   -0.0000
      147 W      5g3-       0.0000   -0.0000    0.0000    0.0000   -0.0000    0.0000   -0.0000   -0.0000    0.0000    0.0000
      148 W      6g3-      -0.0000    0.0000   -0.0000    0.0000    0.0000   -0.0000    0.0000    0.0000   -0.0000   -0.0000
      149 W      7g3-       0.0000   -0.0000   -0.0000   -0.0000   -0.0000    0.0000   -0.0000   -0.0000    0.0000    0.0000
      150 W      8g3-      -0.0000    0.0000    0.0000    0.0000    0.0000   -0.0000    0.0000    0.0000    0.0000   -0.0000
      151 W      5g2-       0.0000   -0.0000   -0.0000   -0.0000   -0.0000   -0.0000    0.0000    0.0001    0.0000    0.0000
      152 W      6g2-      -0.0000    0.0000   -0.0000   -0.0000    0.0000   -0.0000   -0.0000   -0.0001   -0.0000   -0.0000
      153 W      7g2-       0.0000   -0.0000    0.0000    0.0000   -0.0000    0.0000    0.0000    0.0001    0.0000    0.0000
      154 W      8g2-      -0.0000    0.0000   -0.0000   -0.0000    0.0000   -0.0000   -0.0000   -0.0001   -0.0000   -0.0000
      155 W      5g1-       0.0000    0.0000   -0.0000   -0.0000    0.0000    0.0000   -0.0000   -0.0005   -0.0000   -0.0001
      156 W      6g1-      -0.0000   -0.0000    0.0000    0.0000   -0.0000   -0.0000    0.0000    0.0005    0.0000    0.0001
      157 W      7g1-       0.0000    0.0000   -0.0000   -0.0000    0.0000   -0.0000   -0.0000   -0.0005   -0.0000   -0.0001
      158 W      8g1-      -0.0000   -0.0000    0.0000    0.0000   -0.0000    0.0000    0.0000    0.0004    0.0000    0.0000
      159 W      5g0       -0.0000   -0.0000   -0.0000    0.0000   -0.0000   -0.0001    0.0000    0.0000   -0.0009    0.0000
      160 W      6g0        0.0000    0.0000    0.0000   -0.0000    0.0000    0.0001    0.0000   -0.0000    0.0009   -0.0000
      161 W      7g0       -0.0000   -0.0000   -0.0000    0.0000   -0.0000   -0.0000   -0.0000    0.0000   -0.0009    0.0000
      162 W      8g0        0.0000    0.0000    0.0000   -0.0000    0.0000    0.0000    0.0000   -0.0000    0.0006   -0.0000
      163 W      5g1+      -0.0000   -0.0000   -0.0000    0.0000   -0.0000   -0.0000   -0.0005    0.0000    0.0000   -0.0002
      164 W      6g1+       0.0000    0.0000    0.0000   -0.0000    0.0000    0.0000    0.0005   -0.0000   -0.0000    0.0002
      165 W      7g1+      -0.0000   -0.0000   -0.0000    0.0000   -0.0000   -0.0000   -0.0005    0.0000    0.0000   -0.0002
      166 W      8g1+       0.0000    0.0000    0.0000   -0.0000    0.0000    0.0000    0.0004   -0.0000   -0.0000    0.0001
      167 W      5g2+       0.0000    0.0000    0.0000   -0.0000   -0.0000    0.0000   -0.0001    0.0000   -0.0000   -0.0001
      168 W      6g2+      -0.0000   -0.0000    0.0000   -0.0000    0.0000   -0.0000    0.0001   -0.0000    0.0000    0.0001
      169 W      7g2+       0.0000    0.0000   -0.0000    0.0000   -0.0000    0.0000   -0.0001    0.0000   -0.0000   -0.0001
      170 W      8g2+      -0.0000   -0.0000    0.0000   -0.0000    0.0000   -0.0000    0.0001   -0.0000    0.0000    0.0000
      171 W      5g3+       0.0000    0.0000   -0.0000    0.0000   -0.0000    0.0005    0.0000   -0.0000   -0.0006    0.0000
      172 W      6g3+      -0.0000   -0.0000    0.0000   -0.0000    0.0000   -0.0005   -0.0000   -0.0000    0.0006   -0.0000
      173 W      7g3+       0.0000    0.0000   -0.0000    0.0000   -0.0000    0.0005    0.0000    0.0000   -0.0006    0.0000
      174 W      8g3+      -0.0000   -0.0000    0.0000   -0.0000    0.0000   -0.0003   -0.0000   -0.0000    0.0004   -0.0000
      175 W      5g4+      -0.0000   -0.0000   -0.0000    0.0000   -0.0000   -0.0000   -0.0004    0.0000    0.0000    0.0000
      176 W      6g4+       0.0000    0.0000    0.0000   -0.0000    0.0000    0.0000    0.0004   -0.0000   -0.0000   -0.0000
      177 W      7g4+      -0.0000   -0.0000   -0.0000    0.0000   -0.0000   -0.0000   -0.0004    0.0000    0.0000    0.0000
      178 W      8g4+       0.0000    0.0000    0.0000   -0.0000   -0.0000    0.0000    0.0003   -0.0000   -0.0000   -0.0000
      179 W      6h5-      -0.0000   -0.0000    0.0000    0.0000    0.0000    0.0000    0.0000    0.0000    0.0000    0.0000
      180 W      7h5-       0.0000    0.0000   -0.0000   -0.0000   -0.0000   -0.0000   -0.0000   -0.0000   -0.0000   -0.0000
      181 W      6h4-       0.0000    0.0000    0.0000    0.0000    0.0000   -0.0000    0.0000    0.0000    0.0000   -0.0000
      182 W      7h4-      -0.0000   -0.0000   -0.0000   -0.0000   -0.0000    0.0000   -0.0000   -0.0001   -0.0000    0.0000
      183 W      6h3-      -0.0000    0.0000    0.0000    0.0000    0.0000    0.0000    0.0000    0.0000    0.0000   -0.0000
      184 W      7h3-       0.0000    0.0000   -0.0000   -0.0000    0.0000   -0.0000   -0.0000   -0.0000   -0.0000   -0.0000
      185 W      6h2-      -0.0000   -0.0000    0.0000    0.0000    0.0000    0.0000    0.0000    0.0000    0.0000    0.0000
      186 W      7h2-       0.0000    0.0000   -0.0000   -0.0000   -0.0000   -0.0000   -0.0000   -0.0000   -0.0000   -0.0000
      187 W      6h1-       0.0000    0.0000    0.0000    0.0000    0.0000   -0.0000    0.0000    0.0000    0.0000   -0.0000
      188 W      7h1-      -0.0000   -0.0000   -0.0000   -0.0000   -0.0000    0.0000   -0.0000   -0.0000   -0.0000    0.0000
      189 W      6h0       -0.0000   -0.0000   -0.0000    0.0000   -0.0000   -0.0000   -0.0000    0.0000   -0.0001    0.0000
      190 W      7h0        0.0000    0.0000    0.0000   -0.0000    0.0000    0.0000    0.0000   -0.0000    0.0001   -0.0000
      191 W      6h1+      -0.0000   -0.0000    0.0000   -0.0000   -0.0000    0.0000    0.0000   -0.0000   -0.0000   -0.0000
      192 W      7h1+       0.0000    0.0000   -0.0000    0.0000    0.0000   -0.0000   -0.0000    0.0000    0.0000    0.0000
      193 W      6h2+      -0.0000   -0.0000   -0.0000    0.0000   -0.0000    0.0000   -0.0000    0.0000   -0.0000   -0.0000
      194 W      7h2+       0.0000    0.0000    0.0000   -0.0000    0.0000   -0.0000    0.0000   -0.0000   -0.0000    0.0000
      195 W      6h3+       0.0000   -0.0000   -0.0000    0.0000    0.0000   -0.0000   -0.0000    0.0000    0.0000    0.0000
      196 W      7h3+      -0.0000    0.0000    0.0000   -0.0000   -0.0000    0.0000    0.0000   -0.0000   -0.0000   -0.0000
      197 W      6h4+      -0.0000   -0.0000    0.0000   -0.0000   -0.0000    0.0000    0.0000   -0.0000   -0.0000   -0.0000
      198 W      7h4+       0.0000    0.0000   -0.0000    0.0000    0.0000   -0.0000   -0.0001    0.0000    0.0000    0.0000
      199 W      6h5+      -0.0000   -0.0000   -0.0000    0.0000   -0.0000    0.0000   -0.0000    0.0000   -0.0000   -0.0000
      200 W      7h5+       0.0000    0.0000    0.0000   -0.0000    0.0000   -0.0000    0.0000   -0.0000    0.0000    0.0000

          Orbital           11        12        13        14        15        16        17        18        19        20    
          Energy          -66.5831  -65.7842  -65.6943  -65.6943  -22.3026  -16.9386  -16.9386  -16.7048   -9.7730   -9.7730
          Occ. No.          2.0000    2.0000    2.0000    2.0000    2.0000    2.0000    2.0000    2.0000    2.0000    2.0000

        1 W      1s         0.0000    0.0000   -0.0000    0.0000    0.0000   -0.0000    0.0000   -0.0000    0.0000   -0.0000
        2 W      2s         0.0000    0.0003   -0.0000    0.0000   -0.0001    0.0000   -0.0000    0.0001    0.0000   -0.0000
        3 W      3s         0.0000    0.0104   -0.0000    0.0000   -0.0032    0.0000   -0.0000    0.0001   -0.0000    0.0000
        4 W      4s        -0.0000   -0.0005    0.0000   -0.0000    0.9979    0.0000    0.0000   -0.0465   -0.0000    0.0000
        5 W      5s         0.0000    0.0003   -0.0000    0.0000    0.0229   -0.0000    0.0000   -0.0060    0.0000   -0.0000
        6 W      6s        -0.0000   -0.0001    0.0000   -0.0000   -0.0054    0.0000   -0.0000    0.0012   -0.0000    0.0000
        7 W      7s         0.0000    0.0001   -0.0000    0.0000    0.0058   -0.0000    0.0000   -0.0013    0.0000   -0.0000
        8 W      8s        -0.0000   -0.0002    0.0000   -0.0000   -0.0132    0.0000   -0.0000    0.0029   -0.0000    0.0000
        9 W      9s         0.0000    0.0003   -0.0000    0.0000    0.0140    0.0000    0.0000   -0.0029    0.0000   -0.0000
       10 W     10s        -0.0000   -0.0004    0.0000   -0.0000   -0.0118   -0.0000   -0.0000    0.0023   -0.0000    0.0000
       11 W     11s         0.0000    0.0007   -0.0000    0.0000    0.0086   -0.0000    0.0000   -0.0013   -0.0000    0.0000
       12 W      2px        0.0000   -0.0000   -0.0007    0.0000    0.0000   -0.0001    0.0000    0.0000    0.0000   -0.0000
       13 W      3px        0.0001   -0.0000   -0.0542    0.0015    0.0000   -0.0041    0.0009    0.0000    0.0002   -0.0000
       14 W      4px        0.0001    0.0000    0.0012   -0.0000   -0.0000    0.9735   -0.2167   -0.0000   -0.0028    0.0006
       15 W      5px       -0.0000   -0.0000   -0.0007    0.0000    0.0000    0.0231   -0.0051   -0.0000    0.0004   -0.0001
       16 W      6px        0.0000    0.0000    0.0003   -0.0000   -0.0000   -0.0080    0.0018    0.0000   -0.0002    0.0000
       17 W      7px       -0.0000   -0.0000   -0.0010    0.0000    0.0000    0.0191   -0.0042   -0.0000    0.0004   -0.0001
       18 W      8px        0.0000    0.0000    0.0011   -0.0000   -0.0000   -0.0143    0.0032    0.0000   -0.0002    0.0000
       19 W      9px       -0.0001   -0.0000   -0.0013    0.0000    0.0000    0.0103   -0.0023   -0.0000    0.0001   -0.0000
       20 W     10px        0.0001    0.0000    0.0015   -0.0000   -0.0000   -0.0062    0.0014    0.0000   -0.0001    0.0000
       21 W     11px       -0.0001   -0.0000   -0.0024    0.0001   -0.0000    0.0026   -0.0006   -0.0000    0.0000   -0.0000
       22 W      2py       -0.0001    0.0000   -0.0000   -0.0007    0.0000   -0.0000   -0.0001   -0.0000    0.0000    0.0000
       23 W      3py       -0.0004    0.0000   -0.0015   -0.0542    0.0000   -0.0009   -0.0041   -0.0000    0.0000    0.0002
       24 W      4py       -0.0004   -0.0000    0.0000    0.0012   -0.0000    0.2167    0.9735    0.0000   -0.0006   -0.0028
       25 W      5py        0.0001    0.0000   -0.0000   -0.0007   -0.0000    0.0051    0.0231    0.0000    0.0001    0.0004
       26 W      6py       -0.0001   -0.0000    0.0000    0.0003    0.0000   -0.0018   -0.0080   -0.0000   -0.0000   -0.0002
       27 W      7py        0.0002    0.0000   -0.0000   -0.0010   -0.0000    0.0042    0.0191    0.0000    0.0001    0.0004
       28 W      8py       -0.0002   -0.0000    0.0000    0.0011    0.0000   -0.0032   -0.0143   -0.0000   -0.0000   -0.0002
       29 W      9py        0.0002    0.0000   -0.0000   -0.0013   -0.0000    0.0023    0.0103    0.0000    0.0000    0.0001
       30 W     10py       -0.0002   -0.0000    0.0000    0.0015    0.0000   -0.0014   -0.0062   -0.0000   -0.0000   -0.0001
       31 W     11py        0.0003    0.0000   -0.0001   -0.0024    0.0000    0.0006    0.0026    0.0000    0.0000    0.0000
       32 W      2pz       -0.0000    0.0000   -0.0000    0.0000    0.0000   -0.0000    0.0000   -0.0002   -0.0000    0.0000
       33 W      3pz        0.0000    0.0269   -0.0000    0.0000   -0.0005   -0.0000    0.0000   -0.0035    0.0000    0.0000
       34 W      4pz       -0.0000   -0.0018    0.0000   -0.0000    0.0467    0.0000   -0.0000    0.9975    0.0000    0.0000
       35 W      5pz        0.0000    0.0008   -0.0000    0.0000   -0.0023    0.0000   -0.0000    0.0293    0.0000    0.0000
       36 W      6pz       -0.0000   -0.0003    0.0000   -0.0000    0.0008   -0.0000    0.0000   -0.0102    0.0000   -0.0000
       37 W      7pz        0.0000    0.0010   -0.0000    0.0000   -0.0019    0.0000   -0.0000    0.0243    0.0000    0.0000
       38 W      8pz       -0.0000   -0.0011    0.0000   -0.0000    0.0015   -0.0000    0.0000   -0.0183   -0.0000   -0.0000
       39 W      9pz        0.0000    0.0013   -0.0000    0.0000   -0.0011    0.0000   -0.0000    0.0131    0.0000   -0.0000
       40 W     10pz       -0.0000   -0.0014    0.0000   -0.0000    0.0006   -0.0000    0.0000   -0.0078   -0.0000    0.0000
       41 W     11pz        0.0000    0.0022   -0.0000    0.0000   -0.0001    0.0000   -0.0000    0.0029    0.0000    0.0000
       42 W      3d2-      -0.8127   -0.0000    0.0149    0.5359   -0.0000   -0.0002   -0.0009   -0.0000    0.0009    0.0041
       43 W      4d2-      -0.0039   -0.0000    0.0000    0.0003    0.0000    0.0064    0.0289    0.0000   -0.1771   -0.8274
       44 W      5d2-       0.0006   -0.0000    0.0000    0.0001    0.0000   -0.0006   -0.0025   -0.0000   -0.0042   -0.0194
       45 W      6d2-      -0.0008    0.0000   -0.0000   -0.0002   -0.0000    0.0007    0.0030    0.0000    0.0046    0.0213
       46 W      7d2-       0.0010   -0.0000    0.0000    0.0003    0.0000   -0.0007   -0.0032   -0.0000   -0.0044   -0.0205
       47 W      8d2-      -0.0009    0.0000   -0.0000   -0.0006   -0.0000    0.0006    0.0027    0.0000    0.0032    0.0149
       48 W      9d2-       0.0007   -0.0000    0.0000    0.0009    0.0000   -0.0004   -0.0018   -0.0000   -0.0021   -0.0097
       49 W     10d2-      -0.0003    0.0000   -0.0000   -0.0016   -0.0000    0.0002    0.0010    0.0000    0.0013    0.0061
       50 W     11d2-      -0.0007   -0.0000    0.0001    0.0024    0.0000    0.0001    0.0004    0.0000   -0.0004   -0.0021
       51 W      3d1-       0.5173   -0.0000    0.0234    0.8420    0.0000   -0.0002   -0.0009   -0.0000   -0.0006   -0.0028
       52 W      4d1-       0.0029   -0.0000    0.0000    0.0013   -0.0000    0.0114    0.0510    0.0000    0.1109    0.5183
       53 W      5d1-      -0.0005    0.0000   -0.0000   -0.0000   -0.0000   -0.0009   -0.0038   -0.0000    0.0027    0.0126
       54 W      6d1-       0.0006   -0.0000   -0.0000   -0.0000    0.0000    0.0010    0.0045    0.0000   -0.0029   -0.0138
       55 W      7d1-      -0.0008   -0.0000    0.0000    0.0002   -0.0000   -0.0011   -0.0048   -0.0000    0.0028    0.0131
       56 W      8d1-       0.0008    0.0000   -0.0000   -0.0006    0.0000    0.0009    0.0038    0.0000   -0.0020   -0.0095
       57 W      9d1-      -0.0007   -0.0000    0.0000    0.0011   -0.0000   -0.0006   -0.0025   -0.0000    0.0013    0.0061
       58 W     10d1-       0.0005    0.0000   -0.0001   -0.0021    0.0000    0.0003    0.0013    0.0000   -0.0008   -0.0038
       59 W     11d1-       0.0001   -0.0000    0.0001    0.0033   -0.0000    0.0001    0.0006    0.0000    0.0003    0.0013
       60 W      3d0        0.0000    0.9995   -0.0000    0.0000    0.0006    0.0000   -0.0000    0.0017    0.0000   -0.0000
       61 W      4d0        0.0000    0.0019   -0.0000    0.0000   -0.0116    0.0000    0.0000   -0.0215   -0.0000    0.0000
       62 W      5d0       -0.0000   -0.0002    0.0000   -0.0000    0.0015    0.0000   -0.0000    0.0025   -0.0000    0.0000
       63 W      6d0        0.0000    0.0002   -0.0000    0.0000   -0.0019   -0.0000    0.0000   -0.0031    0.0000   -0.0000
       64 W      7d0       -0.0000   -0.0000    0.0000   -0.0000    0.0022    0.0000   -0.0000    0.0035   -0.0000    0.0000
       65 W      8d0        0.0000   -0.0004    0.0000   -0.0000   -0.0021   -0.0000    0.0000   -0.0030    0.0000   -0.0000
       66 W      9d0       -0.0000    0.0009   -0.0000    0.0000    0.0016    0.0000   -0.0000    0.0021   -0.0000    0.0000
       67 W     10d0       -0.0000   -0.0019    0.0000   -0.0000   -0.0011   -0.0000    0.0000   -0.0014    0.0000   -0.0000
       68 W     11d0        0.0000    0.0034   -0.0000    0.0000   -0.0002    0.0000    0.0000   -0.0002   -0.0000    0.0000
       69 W      3d1+      -0.1439    0.0000    0.8420   -0.0234   -0.0000   -0.0009    0.0002    0.0000   -0.0028    0.0006
       70 W      4d1+      -0.0008    0.0000    0.0013   -0.0000    0.0000    0.0510   -0.0114   -0.0000    0.5183   -0.1109
       71 W      5d1+       0.0001   -0.0000   -0.0000    0.0000   -0.0000   -0.0038    0.0009    0.0000    0.0126   -0.0027
       72 W      6d1+      -0.0002    0.0000   -0.0000    0.0000    0.0000    0.0045   -0.0010   -0.0000   -0.0138    0.0029
       73 W      7d1+       0.0002    0.0000    0.0002   -0.0000    0.0000   -0.0048    0.0011    0.0000    0.0131   -0.0028
       74 W      8d1+      -0.0002   -0.0000   -0.0006    0.0000   -0.0000    0.0038   -0.0009   -0.0000   -0.0095    0.0020
       75 W      9d1+       0.0002    0.0000    0.0011   -0.0000    0.0000   -0.0025    0.0006    0.0000    0.0061   -0.0013
       76 W     10d1+      -0.0001   -0.0000   -0.0021    0.0001   -0.0000    0.0013   -0.0003   -0.0000   -0.0038    0.0008
       77 W     11d1+      -0.0000    0.0000    0.0033   -0.0001    0.0000    0.0006   -0.0001   -0.0000    0.0013   -0.0003
       78 W      3d2+      -0.2261   -0.0000   -0.5359    0.0149   -0.0000    0.0009   -0.0002   -0.0000   -0.0041    0.0009
       79 W      4d2+      -0.0011    0.0000   -0.0003    0.0000    0.0000   -0.0289    0.0064    0.0000    0.8274   -0.1771
       80 W      5d2+       0.0002   -0.0000   -0.0001    0.0000    0.0000    0.0025   -0.0006   -0.0000    0.0194   -0.0042
       81 W      6d2+      -0.0002    0.0000    0.0002   -0.0000   -0.0000   -0.0030    0.0007    0.0000   -0.0213    0.0046
       82 W      7d2+       0.0003   -0.0000   -0.0003    0.0000    0.0000    0.0032   -0.0007   -0.0000    0.0205   -0.0044
       83 W      8d2+      -0.0003    0.0000    0.0006   -0.0000   -0.0000   -0.0027    0.0006    0.0000   -0.0149    0.0032
       84 W      9d2+       0.0002   -0.0000   -0.0009    0.0000    0.0000    0.0018   -0.0004   -0.0000    0.0097   -0.0021
       85 W     10d2+      -0.0001    0.0000    0.0016   -0.0000   -0.0000   -0.0010    0.0002    0.0000   -0.0061    0.0013
       86 W     11d2+      -0.0002   -0.0000   -0.0024    0.0001    0.0000   -0.0004    0.0001    0.0000    0.0021   -0.0004
       87 W      4f3-       0.0000    0.0000   -0.0000   -0.0000    0.0000    0.0000    0.0000    0.0000    0.0000    0.0000
       88 W      5f3-      -0.0000   -0.0000    0.0000    0.0000   -0.0000   -0.0000   -0.0000   -0.0000   -0.0000   -0.0000
       89 W      6f3-       0.0000    0.0000   -0.0000   -0.0000    0.0000    0.0000    0.0000    0.0000    0.0000    0.0000
       90 W      7f3-      -0.0000   -0.0000    0.0000    0.0000   -0.0000    0.0000    0.0000   -0.0000    0.0000    0.0000
       91 W      8f3-       0.0000    0.0000   -0.0000   -0.0000    0.0000   -0.0000   -0.0000   -0.0000   -0.0000   -0.0000
       92 W      9f3-      -0.0000   -0.0000   -0.0000    0.0000   -0.0000    0.0000    0.0000    0.0000    0.0000    0.0000
       93 W     10f3-       0.0000    0.0000    0.0000   -0.0000    0.0000    0.0000   -0.0000   -0.0000   -0.0000   -0.0000
       94 W     11f3-       0.0000   -0.0000   -0.0000    0.0000   -0.0000    0.0000    0.0000   -0.0000    0.0000    0.0000
       95 W      4f2-      -0.0036   -0.0000    0.0002    0.0083    0.0000   -0.0018   -0.0082    0.0000   -0.0052   -0.0241
       96 W      5f2-       0.0026    0.0000   -0.0002   -0.0059   -0.0000    0.0008    0.0034   -0.0000    0.0014    0.0063
       97 W      6f2-      -0.0025   -0.0000    0.0002    0.0056    0.0000   -0.0005   -0.0022   -0.0000   -0.0006   -0.0027
       98 W      7f2-       0.0022    0.0000   -0.0001   -0.0050    0.0000    0.0002    0.0009    0.0000    0.0000    0.0002
       99 W      8f2-      -0.0020   -0.0000    0.0001    0.0044   -0.0000   -0.0000   -0.0001   -0.0000    0.0002    0.0007
      100 W      9f2-       0.0015    0.0000   -0.0001   -0.0032    0.0000   -0.0001   -0.0004    0.0000   -0.0002   -0.0009
      101 W     10f2-      -0.0013   -0.0000    0.0001    0.0026   -0.0000    0.0001    0.0006    0.0000    0.0002    0.0009
      102 W     11f2-       0.0007    0.0000   -0.0000   -0.0008   -0.0000   -0.0002   -0.0010   -0.0000   -0.0002   -0.0010
      103 W      4f1-       0.0014   -0.0000    0.0000    0.0015   -0.0000   -0.0008   -0.0035   -0.0000    0.0022    0.0103
      104 W      5f1-      -0.0010    0.0000   -0.0000   -0.0010    0.0000    0.0004    0.0017    0.0000   -0.0004   -0.0020
      105 W      6f1-       0.0010   -0.0000    0.0000    0.0010    0.0000   -0.0002   -0.0011   -0.0000    0.0001    0.0007
      106 W      7f1-      -0.0009    0.0000   -0.0000   -0.0009   -0.0000    0.0001    0.0004   -0.0000    0.0000    0.0002
      107 W      8f1-       0.0008   -0.0000    0.0000    0.0008    0.0000    0.0000    0.0001    0.0000   -0.0001   -0.0004
      108 W      9f1-      -0.0006    0.0000   -0.0000   -0.0006   -0.0000   -0.0001   -0.0004   -0.0000    0.0001    0.0004
      109 W     10f1-       0.0005   -0.0000    0.0000    0.0006   -0.0000    0.0001    0.0005   -0.0000   -0.0001   -0.0004
      110 W     11f1-      -0.0004    0.0000   -0.0000   -0.0004    0.0000   -0.0001   -0.0005   -0.0000    0.0001    0.0004
      111 W      4f0       -0.0000   -0.0037    0.0000   -0.0000   -0.0185   -0.0000    0.0000   -0.0056    0.0000   -0.0000
      112 W      5f0        0.0000    0.0026   -0.0000    0.0000    0.0085    0.0000   -0.0000    0.0021   -0.0000    0.0000
      113 W      6f0       -0.0000   -0.0025    0.0000   -0.0000   -0.0055   -0.0000    0.0000   -0.0014    0.0000   -0.0000
      114 W      7f0        0.0000    0.0022   -0.0000    0.0000    0.0022   -0.0000    0.0000    0.0006    0.0000    0.0000
      115 W      8f0       -0.0000   -0.0019    0.0000   -0.0000    0.0001    0.0000   -0.0000    0.0000   -0.0000    0.0000
      116 W      9f0        0.0000    0.0013   -0.0000    0.0000   -0.0014   -0.0000    0.0000   -0.0004    0.0000   -0.0000
      117 W     10f0       -0.0000   -0.0010    0.0000   -0.0000    0.0020    0.0000   -0.0000    0.0006   -0.0000    0.0000
      118 W     11f0       -0.0000   -0.0002    0.0000   -0.0000   -0.0027   -0.0000    0.0000   -0.0008    0.0000   -0.0000
      119 W      4f1+      -0.0004    0.0000    0.0015   -0.0000    0.0000   -0.0035    0.0008    0.0000    0.0103   -0.0022
      120 W      5f1+       0.0003   -0.0000   -0.0010    0.0000   -0.0000    0.0017   -0.0004   -0.0000   -0.0020    0.0004
      121 W      6f1+      -0.0003    0.0000    0.0010   -0.0000    0.0000   -0.0011    0.0002    0.0000    0.0007   -0.0001
      122 W      7f1+       0.0002   -0.0000   -0.0009    0.0000    0.0000    0.0004   -0.0001    0.0000    0.0002   -0.0000
      123 W      8f1+      -0.0002    0.0000    0.0008   -0.0000   -0.0000    0.0001   -0.0000   -0.0000   -0.0004    0.0001
      124 W      9f1+       0.0002   -0.0000   -0.0006    0.0000    0.0000   -0.0004    0.0001    0.0000    0.0004   -0.0001
      125 W     10f1+      -0.0001    0.0000    0.0006   -0.0000   -0.0000    0.0005   -0.0001   -0.0000   -0.0004    0.0001
      126 W     11f1+       0.0001   -0.0000   -0.0004    0.0000    0.0000   -0.0005    0.0001    0.0000    0.0004   -0.0001
      127 W      4f2+      -0.0010   -0.0000   -0.0083    0.0002   -0.0000    0.0082   -0.0018    0.0000    0.0241   -0.0052
      128 W      5f2+       0.0007    0.0000    0.0059   -0.0002    0.0000   -0.0034    0.0008   -0.0000   -0.0063    0.0014
      129 W      6f2+      -0.0007   -0.0000   -0.0056    0.0002   -0.0000    0.0022   -0.0005   -0.0000    0.0027   -0.0006
      130 W      7f2+       0.0006    0.0000    0.0050   -0.0001    0.0000   -0.0009    0.0002    0.0000   -0.0002    0.0000
      131 W      8f2+      -0.0005   -0.0000   -0.0044    0.0001    0.0000    0.0001   -0.0000   -0.0000   -0.0007    0.0002
      132 W      9f2+       0.0004    0.0000    0.0032   -0.0001   -0.0000    0.0004   -0.0001    0.0000    0.0009   -0.0002
      133 W     10f2+      -0.0003   -0.0000   -0.0026    0.0001    0.0000   -0.0006    0.0001    0.0000   -0.0009    0.0002
      134 W     11f2+       0.0002    0.0000    0.0008   -0.0000   -0.0000    0.0010   -0.0002    0.0000    0.0010   -0.0002
      135 W      4f3+       0.0000    0.0030   -0.0000    0.0000   -0.0122    0.0000   -0.0000    0.0089   -0.0000   -0.0000
      136 W      5f3+      -0.0000   -0.0021    0.0000   -0.0000    0.0056   -0.0000    0.0000   -0.0037   -0.0000    0.0000
      137 W      6f3+       0.0000    0.0021   -0.0000    0.0000   -0.0036    0.0000   -0.0000    0.0024    0.0000   -0.0000
      138 W      7f3+      -0.0000   -0.0018    0.0000   -0.0000    0.0014    0.0000   -0.0000   -0.0010    0.0000   -0.0000
      139 W      8f3+       0.0000    0.0016   -0.0000    0.0000    0.0001   -0.0000    0.0000    0.0001    0.0000    0.0000
      140 W      9f3+      -0.0000   -0.0012    0.0000   -0.0000   -0.0009    0.0000   -0.0000    0.0004   -0.0000    0.0000
      141 W     10f3+       0.0000    0.0010   -0.0000    0.0000    0.0013   -0.0000   -0.0000   -0.0006    0.0000   -0.0000
      142 W     11f3+      -0.0000   -0.0004    0.0000   -0.0000   -0.0017    0.0000   -0.0000    0.0010   -0.0000    0.0000
      143 W      5g4-       0.0000   -0.0000    0.0000    0.0005    0.0000   -0.0005   -0.0024   -0.0000   -0.0000   -0.0002
      144 W      6g4-      -0.0000    0.0000   -0.0000   -0.0005   -0.0000    0.0004    0.0018    0.0000   -0.0000   -0.0001
      145 W      7g4-       0.0000   -0.0000    0.0000    0.0004    0.0000   -0.0003   -0.0014   -0.0000    0.0000    0.0002
      146 W      8g4-      -0.0000    0.0000   -0.0000   -0.0003   -0.0000    0.0002    0.0008    0.0000   -0.0000   -0.0001
      147 W      5g3-      -0.0000    0.0000    0.0000    0.0000   -0.0000    0.0000   -0.0000    0.0000    0.0000   -0.0000
      148 W      6g3-       0.0000    0.0000   -0.0000   -0.0000   -0.0000    0.0000    0.0000    0.0000    0.0000    0.0000
      149 W      7g3-      -0.0000    0.0000    0.0000    0.0000    0.0000   -0.0000   -0.0000   -0.0000   -0.0000   -0.0000
      150 W      8g3-       0.0000   -0.0000   -0.0000   -0.0000   -0.0000   -0.0000    0.0000    0.0000   -0.0000   -0.0000
      151 W      5g2-       0.0001    0.0000   -0.0000   -0.0003   -0.0000    0.0000    0.0000   -0.0000    0.0001    0.0007
      152 W      6g2-      -0.0001   -0.0000    0.0000    0.0003   -0.0000   -0.0000   -0.0001   -0.0000   -0.0001   -0.0003
      153 W      7g2-       0.0001    0.0000   -0.0000   -0.0003    0.0000    0.0000    0.0001    0.0000    0.0000    0.0002
      154 W      8g2-      -0.0000   -0.0000    0.0000    0.0002   -0.0000   -0.0000   -0.0001   -0.0000   -0.0000   -0.0001
      155 W      5g1-      -0.0002   -0.0000    0.0000    0.0004    0.0000   -0.0006   -0.0028   -0.0000   -0.0002   -0.0009
      156 W      6g1-       0.0002    0.0000   -0.0000   -0.0003    0.0000    0.0005    0.0022    0.0000    0.0002    0.0008
      157 W      7g1-      -0.0002   -0.0000    0.0000    0.0002   -0.0000   -0.0004   -0.0017   -0.0000   -0.0002   -0.0007
      158 W      8g1-       0.0001    0.0000   -0.0000   -0.0002    0.0000    0.0002    0.0010    0.0000    0.0001    0.0005
      159 W      5g0       -0.0000   -0.0011    0.0000   -0.0000   -0.0002   -0.0000    0.0000   -0.0046    0.0000   -0.0000
      160 W      6g0        0.0000    0.0009   -0.0000    0.0000    0.0001    0.0000   -0.0000    0.0036    0.0000   -0.0000
      161 W      7g0       -0.0000   -0.0007    0.0000   -0.0000   -0.0001   -0.0000    0.0000   -0.0028   -0.0000    0.0000
      162 W      8g0        0.0000    0.0005   -0.0000    0.0000    0.0001    0.0000   -0.0000    0.0017   -0.0000    0.0000
      163 W      5g1+       0.0001    0.0000    0.0004   -0.0000   -0.0000   -0.0028    0.0006    0.0000   -0.0009    0.0002
      164 W      6g1+      -0.0001   -0.0000   -0.0003    0.0000    0.0000    0.0022   -0.0005   -0.0000    0.0008   -0.0002
      165 W      7g1+       0.0001    0.0000    0.0002   -0.0000   -0.0000   -0.0017    0.0004    0.0000   -0.0007    0.0002
      166 W      8g1+      -0.0000   -0.0000   -0.0002    0.0000    0.0000    0.0010   -0.0002   -0.0000    0.0005   -0.0001
      167 W      5g2+       0.0000    0.0000    0.0003   -0.0000    0.0000   -0.0000    0.0000   -0.0000   -0.0007    0.0001
      168 W      6g2+      -0.0000   -0.0000   -0.0003    0.0000   -0.0000    0.0001   -0.0000   -0.0000    0.0003   -0.0001
      169 W      7g2+       0.0000    0.0000    0.0003   -0.0000    0.0000   -0.0001    0.0000    0.0000   -0.0002    0.0000
      170 W      8g2+      -0.0000   -0.0000   -0.0002    0.0000   -0.0000    0.0001   -0.0000   -0.0000    0.0001   -0.0000
      171 W      5g3+      -0.0000   -0.0003    0.0000   -0.0000    0.0018   -0.0000    0.0000   -0.0026   -0.0000   -0.0000
      172 W      6g3+       0.0000    0.0002   -0.0000    0.0000   -0.0015    0.0000   -0.0000    0.0022   -0.0000    0.0000
      173 W      7g3+      -0.0000   -0.0002    0.0000   -0.0000    0.0013   -0.0000    0.0000   -0.0017    0.0000   -0.0000
      174 W      8g3+       0.0000    0.0001   -0.0000    0.0000   -0.0009    0.0000   -0.0000    0.0010    0.0000   -0.0000
      175 W      5g4+      -0.0000    0.0000    0.0005   -0.0000   -0.0000   -0.0024    0.0005    0.0000   -0.0002    0.0000
      176 W      6g4+       0.0000   -0.0000   -0.0005    0.0000    0.0000    0.0018   -0.0004   -0.0000   -0.0001    0.0000
      177 W      7g4+      -0.0000    0.0000    0.0004   -0.0000   -0.0000   -0.0014    0.0003    0.0000    0.0002   -0.0000
      178 W      8g4+       0.0000   -0.0000   -0.0003    0.0000    0.0000    0.0008   -0.0002   -0.0000   -0.0001    0.0000
      179 W      6h5-       0.0000    0.0000   -0.0000   -0.0000   -0.0000    0.0000    0.0002    0.0000    0.0001    0.0006
      180 W      7h5-      -0.0000   -0.0000    0.0000    0.0000   -0.0000   -0.0000   -0.0001   -0.0000   -0.0001   -0.0007
      181 W      6h4-      -0.0000    0.0000   -0.0000   -0.0000    0.0000    0.0001    0.0002    0.0000   -0.0001   -0.0003
      182 W      7h4-       0.0000   -0.0000    0.0000    0.0001    0.0000   -0.0001   -0.0002   -0.0000    0.0001    0.0003
      183 W      6h3-      -0.0000    0.0000    0.0000   -0.0000   -0.0000    0.0000    0.0000    0.0000   -0.0000   -0.0000
      184 W      7h3-       0.0000    0.0000   -0.0000    0.0000   -0.0000   -0.0000   -0.0000    0.0000   -0.0000    0.0000
      185 W      6h2-       0.0000    0.0000   -0.0000   -0.0000   -0.0000    0.0001    0.0003    0.0000    0.0001    0.0004
      186 W      7h2-      -0.0000   -0.0000    0.0000    0.0000   -0.0000   -0.0000   -0.0002   -0.0000   -0.0001   -0.0005
      187 W      6h1-      -0.0000    0.0000   -0.0000   -0.0001    0.0000    0.0001    0.0005    0.0000   -0.0001   -0.0006
      188 W      7h1-       0.0000   -0.0000    0.0000    0.0001    0.0000   -0.0001   -0.0004   -0.0000    0.0001    0.0005
      189 W      6h0       -0.0000   -0.0001    0.0000   -0.0000   -0.0001   -0.0000    0.0000   -0.0007    0.0000   -0.0000
      190 W      7h0        0.0000    0.0001   -0.0000    0.0000    0.0001    0.0000   -0.0000    0.0005   -0.0000    0.0000
      191 W      6h1+       0.0000   -0.0000   -0.0001    0.0000   -0.0000    0.0005   -0.0001   -0.0000   -0.0006    0.0001
      192 W      7h1+      -0.0000    0.0000    0.0001   -0.0000   -0.0000   -0.0004    0.0001    0.0000    0.0005   -0.0001
      193 W      6h2+       0.0000    0.0000    0.0000   -0.0000   -0.0000   -0.0003    0.0001   -0.0000   -0.0004    0.0001
      194 W      7h2+      -0.0000   -0.0000   -0.0000    0.0000   -0.0000    0.0002   -0.0000    0.0000    0.0005   -0.0001
      195 W      6h3+      -0.0000   -0.0000    0.0000   -0.0000   -0.0001   -0.0000    0.0000   -0.0001   -0.0000    0.0000
      196 W      7h3+       0.0000    0.0000   -0.0000    0.0000    0.0002    0.0000   -0.0000   -0.0001   -0.0000    0.0000
      197 W      6h4+       0.0000   -0.0000   -0.0000    0.0000    0.0000    0.0002   -0.0001   -0.0000   -0.0003    0.0001
      198 W      7h4+      -0.0000    0.0000    0.0001   -0.0000   -0.0000   -0.0002    0.0001    0.0000    0.0003   -0.0001
      199 W      6h5+       0.0000    0.0000    0.0000   -0.0000   -0.0000   -0.0002    0.0000    0.0000   -0.0006    0.0001
      200 W      7h5+      -0.0000   -0.0000   -0.0000    0.0000   -0.0000    0.0001   -0.0000   -0.0000    0.0007   -0.0001

          Orbital           21        22        23        24        25        26        27        28        29        30    
          Energy           -9.4280   -9.4280   -9.4271   -3.9152   -2.4542   -2.4542   -2.4309   -1.6645   -1.6136   -1.5554
          Occ. No.          2.0000    2.0000    2.0000    2.0000    2.0000    2.0000    2.0000    2.0000    2.0000    2.0000

        1 W      1s         0.0000    0.0000   -0.0000   -0.0000    0.0000    0.0000    0.0000   -0.0000    0.0000    0.0000
        2 W      2s         0.0000    0.0000   -0.0001    0.0001   -0.0000   -0.0000   -0.0000    0.0000    0.0000   -0.0000
        3 W      3s        -0.0000   -0.0000    0.0006    0.0009    0.0000    0.0000    0.0000    0.0000    0.0007   -0.0000
        4 W      4s        -0.0000   -0.0000    0.0100   -0.0207    0.0000    0.0000    0.0041    0.0000    0.0027   -0.0000
        5 W      5s        -0.0000   -0.0000    0.0107    0.9961   -0.0000   -0.0000   -0.0509   -0.0000   -0.0086    0.0000
        6 W      6s         0.0000    0.0000   -0.0019    0.0214   -0.0000   -0.0000   -0.0093   -0.0000   -0.0077    0.0000
        7 W      7s        -0.0000   -0.0000    0.0020   -0.0150    0.0000    0.0000    0.0071   -0.0000    0.0053   -0.0000
        8 W      8s         0.0000    0.0000   -0.0039    0.0282   -0.0000   -0.0000   -0.0090    0.0000   -0.0060    0.0000
        9 W      9s        -0.0000   -0.0000    0.0034   -0.0199    0.0000    0.0000    0.0032   -0.0000    0.0021    0.0000
       10 W     10s         0.0000    0.0000   -0.0022    0.0075   -0.0000   -0.0000   -0.0004   -0.0000   -0.0005   -0.0000
       11 W     11s        -0.0000   -0.0000    0.0011   -0.0051    0.0000    0.0000    0.0009    0.0000    0.0008   -0.0000
       12 W      2px        0.0000   -0.0002   -0.0000    0.0000   -0.0000   -0.0000    0.0000   -0.0000   -0.0000    0.0000
       13 W      3px       -0.0006    0.0021    0.0000   -0.0000   -0.0003   -0.0010    0.0000   -0.0000   -0.0000    0.0004
       14 W      4px       -0.0161    0.0553    0.0000   -0.0000    0.0069    0.0214   -0.0000   -0.0000   -0.0000    0.0013
       15 W      5px       -0.0062    0.0213    0.0000   -0.0000   -0.3074   -0.9474    0.0001    0.0000    0.0000   -0.0159
       16 W      6px        0.0018   -0.0061   -0.0000    0.0000   -0.0057   -0.0177    0.0000    0.0000    0.0000   -0.0053
       17 W      7px       -0.0036    0.0124    0.0000   -0.0000    0.0112    0.0346   -0.0000   -0.0000   -0.0000    0.0054
       18 W      8px        0.0023   -0.0078   -0.0000   -0.0000   -0.0048   -0.0149    0.0000   -0.0000   -0.0000   -0.0007
       19 W      9px       -0.0013    0.0046    0.0000    0.0000    0.0007    0.0023   -0.0000   -0.0000   -0.0000   -0.0002
       20 W     10px        0.0007   -0.0025   -0.0000    0.0000   -0.0005   -0.0015    0.0000    0.0000    0.0000   -0.0003
       21 W     11px       -0.0002    0.0008    0.0000    0.0000    0.0005    0.0014   -0.0000    0.0000    0.0000   -0.0000
       22 W      2py        0.0002    0.0000    0.0000   -0.0000    0.0000   -0.0000   -0.0000   -0.0000    0.0000    0.0000
       23 W      3py       -0.0021   -0.0006   -0.0000   -0.0000    0.0010   -0.0003   -0.0000   -0.0000    0.0000    0.0001
       24 W      4py       -0.0553   -0.0161   -0.0000    0.0000   -0.0214    0.0069    0.0000   -0.0000    0.0000    0.0003
       25 W      5py       -0.0213   -0.0062   -0.0000   -0.0000    0.9474   -0.3074   -0.0000    0.0000   -0.0000   -0.0035
       26 W      6py        0.0061    0.0018    0.0000   -0.0000    0.0177   -0.0057   -0.0000    0.0000   -0.0000   -0.0012
       27 W      7py       -0.0124   -0.0036   -0.0000   -0.0000   -0.0346    0.0112    0.0000   -0.0000    0.0000    0.0012
       28 W      8py        0.0078    0.0023    0.0000    0.0000    0.0149   -0.0048   -0.0000   -0.0000    0.0000   -0.0001
       29 W      9py       -0.0046   -0.0013   -0.0000   -0.0000   -0.0023    0.0007    0.0000   -0.0000    0.0000   -0.0000
       30 W     10py        0.0025    0.0007    0.0000   -0.0000    0.0015   -0.0005   -0.0000    0.0000   -0.0000   -0.0001
       31 W     11py       -0.0008   -0.0002   -0.0000   -0.0000   -0.0014    0.0005    0.0000    0.0000   -0.0000   -0.0000
       32 W      2pz       -0.0000   -0.0000    0.0000   -0.0000    0.0000    0.0000    0.0001    0.0000   -0.0000   -0.0000
       33 W      3pz       -0.0000   -0.0000    0.0018    0.0002    0.0000    0.0000    0.0007    0.0000   -0.0031   -0.0000
       34 W      4pz       -0.0000   -0.0000    0.0205    0.0028   -0.0000   -0.0000   -0.0269    0.0000   -0.0105   -0.0000
       35 W      5pz       -0.0000   -0.0000    0.0123    0.0525    0.0001    0.0001    0.9939    0.0000    0.0703    0.0000
       36 W      6pz        0.0000    0.0000   -0.0040   -0.0064    0.0000    0.0000    0.0259    0.0000    0.0259    0.0000
       37 W      7pz       -0.0000   -0.0000    0.0080    0.0079   -0.0000   -0.0000   -0.0440   -0.0000   -0.0258   -0.0000
       38 W      8pz        0.0000    0.0000   -0.0049   -0.0015    0.0000    0.0000    0.0176   -0.0000    0.0041   -0.0000
       39 W      9pz       -0.0000   -0.0000    0.0028   -0.0003   -0.0000   -0.0000   -0.0033    0.0000   -0.0009   -0.0000
       40 W     10pz        0.0000    0.0000   -0.0015   -0.0003    0.0000    0.0000    0.0025    0.0000    0.0023    0.0000
       41 W     11pz       -0.0000   -0.0000    0.0006    0.0001   -0.0000   -0.0000   -0.0016    0.0000   -0.0013    0.0000
       42 W      3d2-      -0.0009   -0.0003   -0.0000    0.0000    0.0001   -0.0000   -0.0000   -0.0000   -0.0000    0.0005
       43 W      4d2-       0.5060    0.1476    0.0002   -0.0000    0.0076   -0.0025   -0.0000   -0.0000   -0.0000    0.0028
       44 W      5d2-       0.0160    0.0047    0.0000   -0.0000    0.0120   -0.0039   -0.0000   -0.0000   -0.0000    0.0086
       45 W      6d2-      -0.0178   -0.0052   -0.0000    0.0000   -0.0081    0.0026    0.0000    0.0000    0.0000   -0.0041
       46 W      7d2-       0.0173    0.0051    0.0000   -0.0000    0.0042   -0.0014   -0.0000   -0.0000    0.0000    0.0013
       47 W      8d2-      -0.0127   -0.0037   -0.0000   -0.0000   -0.0015    0.0005    0.0000    0.0000   -0.0000   -0.0004
       48 W      9d2-       0.0083    0.0024    0.0000    0.0000    0.0009   -0.0003   -0.0000   -0.0000   -0.0000    0.0005
       49 W     10d2-      -0.0053   -0.0015   -0.0000    0.0000   -0.0007    0.0002    0.0000    0.0000   -0.0000   -0.0003
       50 W     11d2-       0.0015    0.0004    0.0000    0.0000   -0.0001    0.0000    0.0000   -0.0000    0.0000    0.0001
       51 W      3d1-      -0.0017   -0.0005   -0.0000    0.0000    0.0002   -0.0001   -0.0000   -0.0000   -0.0000   -0.0001
       52 W      4d1-       0.8095    0.2362    0.0004   -0.0000    0.0123   -0.0040   -0.0000   -0.0000   -0.0000   -0.0014
       53 W      5d1-       0.0261    0.0076    0.0000    0.0000    0.0317   -0.0103   -0.0000    0.0000   -0.0000    0.0028
       54 W      6d1-      -0.0289   -0.0084   -0.0000   -0.0000   -0.0203    0.0066    0.0000    0.0000    0.0000   -0.0011
       55 W      7d1-       0.0280    0.0082    0.0000    0.0000    0.0091   -0.0030   -0.0000   -0.0000    0.0000    0.0001
       56 W      8d1-      -0.0204   -0.0060   -0.0000    0.0000   -0.0019    0.0006    0.0000   -0.0000   -0.0000    0.0001
       57 W      9d1-       0.0132    0.0039    0.0000   -0.0000    0.0012   -0.0004   -0.0000   -0.0000   -0.0000    0.0000
       58 W     10d1-      -0.0083   -0.0024   -0.0000   -0.0000   -0.0011    0.0004    0.0000    0.0000   -0.0000   -0.0000
       59 W     11d1-       0.0023    0.0007    0.0000   -0.0000   -0.0001    0.0000    0.0000   -0.0000   -0.0000    0.0000
       60 W      3d0        0.0000    0.0000   -0.0021   -0.0002   -0.0000   -0.0000   -0.0004    0.0000   -0.0036    0.0000
       61 W      4d0       -0.0002   -0.0008    0.9970   -0.0105   -0.0000   -0.0000   -0.0089    0.0000   -0.0175    0.0000
       62 W      5d0       -0.0000   -0.0000    0.0306   -0.0037   -0.0000   -0.0000    0.0012    0.0000   -0.0804   -0.0000
       63 W      6d0        0.0000    0.0000   -0.0343    0.0034   -0.0000    0.0000    0.0003   -0.0000    0.0394    0.0000
       64 W      7d0       -0.0000   -0.0000    0.0335   -0.0027   -0.0000   -0.0000   -0.0019    0.0000   -0.0126    0.0000
       65 W      8d0        0.0000    0.0000   -0.0247    0.0018    0.0000    0.0000    0.0024   -0.0000    0.0037   -0.0000
       66 W      9d0       -0.0000   -0.0000    0.0160   -0.0013   -0.0000   -0.0000   -0.0014    0.0000   -0.0042   -0.0000
       67 W     10d0        0.0000    0.0000   -0.0100    0.0009    0.0000    0.0000    0.0008   -0.0000    0.0026   -0.0000
       68 W     11d0       -0.0000   -0.0000    0.0028   -0.0000   -0.0000   -0.0000   -0.0000    0.0000   -0.0012    0.0000
       69 W      3d1+      -0.0005    0.0017    0.0000    0.0000   -0.0001   -0.0002    0.0000   -0.0000    0.0000   -0.0004
       70 W      4d1+       0.2362   -0.8095   -0.0006    0.0000   -0.0040   -0.0123    0.0000    0.0000    0.0000   -0.0066
       71 W      5d1+       0.0076   -0.0261   -0.0000   -0.0000   -0.0103   -0.0317    0.0000    0.0000    0.0000    0.0127
       72 W      6d1+      -0.0084    0.0289    0.0000    0.0000    0.0066    0.0203   -0.0000    0.0000   -0.0000   -0.0051
       73 W      7d1+       0.0082   -0.0280   -0.0000   -0.0000   -0.0030   -0.0091    0.0000   -0.0000    0.0000    0.0005
       74 W      8d1+      -0.0060    0.0204    0.0000   -0.0000    0.0006    0.0019   -0.0000   -0.0000    0.0000    0.0005
[...]
         2    6       3.58516238E-05  1.71300031E+02  2.99183036E+00  1.76681533E-11  1.74291862E+02
         2    8       2.10445307E-04  1.49781212E+02  6.52223842E+03  1.39939519E+02  6.81195915E+03
         2   10       5.45481122E-04  6.52252629E+03  1.49786478E+02  1.09848859E+04  1.76571987E+04
         2   12       3.34147547E-02  2.99623361E+07  5.23077959E+05  1.26564602E+00  3.04854153E+07
         2   14       4.16085140E-02  1.88624085E+06  2.86528960E+07  7.49231962E+06  3.80314565E+07
         2   16       5.91115826E-02  2.86412587E+07  1.88659455E+06  2.35019503E+07  5.40298036E+07
         2   18       1.88720580E-04  4.71174616E+05  8.22956494E+03  1.29048771E-04  4.79404181E+05
         3    5       3.58516540E-05  2.99178803E+00  1.71296546E+02  5.74553731E-11  1.74288334E+02
         3    7       5.45467501E-04  6.52217628E+03  1.49775787E+02  1.09842838E+04  1.76562358E+04
         3    9       2.10449968E-04  1.49786139E+02  6.52246958E+03  1.39944342E+02  6.81220006E+03
         3   11       3.33874276E-02  5.23099374E+05  2.99373376E+07  9.18771354E-02  3.04604370E+07
         3   13       5.91250827E-02  2.86524558E+07  1.88785294E+06  2.35017450E+07  5.40420538E+07
         3   15       4.16222812E-02  1.88737439E+06  2.86643395E+07  7.49227217E+06  3.80439860E+07
         3   17       1.88719749E-04  8.22899503E+03  4.71172633E+05  4.94766762E-09  4.79401628E+05
         4    6       3.58516540E-05  2.99178803E+00  1.71296546E+02  5.74553731E-11  1.74288334E+02
         4    8       5.45467501E-04  6.52217628E+03  1.49775787E+02  1.09842838E+04  1.76562358E+04
         4   10       2.10449968E-04  1.49786139E+02  6.52246958E+03  1.39944342E+02  6.81220006E+03
         4   12       3.33874276E-02  5.23099374E+05  2.99373376E+07  9.18771354E-02  3.04604370E+07
         4   14       5.91250827E-02  2.86524558E+07  1.88785294E+06  2.35017450E+07  5.40420538E+07
         4   16       4.16222812E-02  1.88737439E+06  2.86643395E+07  7.49227217E+06  3.80439860E+07
         4   18       1.88719749E-04  8.22899503E+03  4.71172633E+05  4.94766762E-09  4.79401628E+05
         5    7       3.07762555E-05  1.34895435E-01  3.73547377E+02  1.25734992E-09  3.73682273E+02
         5    9       3.07773087E-05  3.73573221E+02  1.34891526E-01  1.00592285E-09  3.73708112E+02
         5   11       8.00706459E-02  8.54766824E-01  1.24410595E-02  6.27753433E+07  6.27753442E+07
         5   13       2.64827104E-02  2.89968691E+06  1.79043981E+07  1.75255146E-01  2.08040852E+07
         5   15       2.64827253E-02  1.79044290E+07  2.89966806E+06  2.46710017E+00  2.08040995E+07
         5   17       4.65034760E-02  7.70700515E-05  1.73826777E-05  1.08022466E+08  1.08022466E+08
         6    8       3.07762555E-05  1.34895435E-01  3.73547377E+02  1.25734992E-09  3.73682273E+02
         6   10       3.07773087E-05  3.73573221E+02  1.34891526E-01  1.00592285E-09  3.73708112E+02
         6   12       8.00706459E-02  8.54766824E-01  1.24410595E-02  6.27753433E+07  6.27753442E+07
         6   14       2.64827104E-02  2.89968691E+06  1.79043981E+07  1.75255146E-01  2.08040852E+07
         6   16       2.64827253E-02  1.79044290E+07  2.89966806E+06  2.46710017E+00  2.08040995E+07
         6   18       4.65034760E-02  7.70700515E-05  1.73826777E-05  1.08022466E+08  1.08022466E+08
         7   11       3.36100034E-02  7.30482728E+03  2.01925808E+07  1.62045566E-02  2.01998857E+07
         7   13       5.92327970E-02  1.66183185E+07  2.40553407E+06  1.66571185E+07  3.56809711E+07
         7   15       3.65571614E-02  2.40623066E+06  1.66110429E+07  3.00422919E+06  2.20215028E+07
         7   17       2.35761850E-02  1.70134074E+04  4.71153004E+07  2.68666091E-05  4.71323138E+07
         8   12       3.36100034E-02  7.30482728E+03  2.01925808E+07  1.62045566E-02  2.01998857E+07
         8   14       5.92327970E-02  1.66183185E+07  2.40553407E+06  1.66571185E+07  3.56809711E+07
         8   16       3.65571614E-02  2.40623066E+06  1.66110429E+07  3.00422919E+06  2.20215028E+07
         8   18       2.35761850E-02  1.70134074E+04  4.71153004E+07  2.68666091E-05  4.71323138E+07
         9   11       3.35831818E-02  2.01763921E+07  7.27251873E+03  7.99239690E-01  2.01836654E+07
         9   13       3.65705023E-02  2.40699871E+06  1.66182408E+07  3.00418724E+06  2.20294268E+07
         9   15       5.92460606E-02  1.66255555E+07  2.40632232E+06  1.66569112E+07  3.56887890E+07
         9   17       2.35761253E-02  4.71150529E+07  1.70133890E+04  1.33503157E-04  4.71320663E+07
        10   12       3.35831818E-02  2.01763921E+07  7.27251873E+03  7.99239690E-01  2.01836654E+07
        10   14       3.65705023E-02  2.40699871E+06  1.66182408E+07  3.00418724E+06  2.20294268E+07
        10   16       5.92460606E-02  1.66255555E+07  2.40632232E+06  1.66569112E+07  3.56887890E+07
        10   18       2.35761253E-02  4.71150529E+07  1.70133890E+04  1.33503157E-04  4.71320663E+07
        11   17       1.45084444E-02  7.27740490E-01  1.13452544E-02  5.91790334E+06  5.91790408E+06
        12   18       1.45084444E-02  7.27740490E-01  1.13452544E-02  5.91790334E+06  5.91790408E+06
        13   17       4.29136752E-02  2.43296664E+06  1.50226258E+07  1.57696792E-02  1.74555925E+07
        14   18       4.29136752E-02  2.43296664E+06  1.50226258E+07  1.57696792E-02  1.74555925E+07
        15   17       4.29137285E-02  1.50226485E+07  2.43296239E+06  2.28486677E-01  1.74556112E+07
        16   18       4.29137285E-02  1.50226485E+07  2.43296239E+06  2.28486677E-01  1.74556112E+07
     -----------------------------------------------------------------------------------------------
--

++ Velocity transition strengths (SO states):
   ------------------------------------------
    for osc. strength at least    1.0000000000000001E-005

      From   To        Osc. strength     Einstein coefficients Ax, Ay, Az (sec-1)    Total A (sec-1)
     -----------------------------------------------------------------------------------------------
         1    5       4.26211148E-04  2.03645538E+03  3.55677226E+01  4.01740166E-08  2.07202310E+03
         1    7       4.74860731E-05  3.41816297E+01  1.48844011E+03  1.44727189E+01  1.53709446E+03
         1    9       8.21412856E-05  1.48856904E+03  3.41839706E+01  1.13616585E+03  2.65891886E+03
         1   11       3.70940401E-02  3.32615907E+07  5.80677968E+05  1.38238481E+00  3.38422700E+07
         1   13       4.51737947E-02  2.04672355E+06  3.10908224E+07  8.15282989E+06  4.12903758E+07
         1   15       6.42197507E-02  3.10780705E+07  2.04711059E+06  2.55738492E+07  5.86990304E+07
         1   17       9.97164816E-05  2.48960819E+05  4.34840831E+03  1.21699423E-04  2.53309228E+05
         2    6       4.26211148E-04  2.03645538E+03  3.55677226E+01  4.01740166E-08  2.07202310E+03
         2    8       4.74860731E-05  3.41816297E+01  1.48844011E+03  1.44727189E+01  1.53709446E+03
         2   10       8.21412856E-05  1.48856904E+03  3.41839706E+01  1.13616585E+03  2.65891886E+03
         2   12       3.70940401E-02  3.32615907E+07  5.80677968E+05  1.38238481E+00  3.38422700E+07
         2   14       4.51737947E-02  2.04672355E+06  3.10908224E+07  8.15282989E+06  4.12903758E+07
         2   16       6.42197507E-02  3.10780705E+07  2.04711059E+06  2.55738492E+07  5.86990304E+07
         2   18       9.97164816E-05  2.48960819E+05  4.34840831E+03  1.21699423E-04  2.53309228E+05
         3    5       4.26217178E-04  3.55674288E+01  2.03644131E+03  3.74100038E-09  2.07200874E+03
         3    7       8.21343271E-05  1.48843246E+03  3.41795059E+01  1.13600305E+03  2.65861502E+03
         3    9       4.74890875E-05  3.41852488E+01  1.48855274E+03  1.44743647E+01  1.53721235E+03
         3   11       3.70640837E-02  5.80703523E+05  3.32341840E+07  1.00870477E-01  3.38148876E+07
         3   13       6.42346130E-02  3.10903746E+07  2.04849373E+06  2.55736497E+07  5.87125180E+07
         3   15       4.51889373E-02  2.04796491E+06  3.11034029E+07  8.15279008E+06  4.13041579E+07
         3   17       9.97165121E-05  4.34804262E+03  2.48961029E+05  5.23369393E-07  2.53309072E+05
         4    6       4.26217178E-04  3.55674288E+01  2.03644131E+03  3.74100038E-09  2.07200874E+03
         4    8       8.21343271E-05  1.48843246E+03  3.41795059E+01  1.13600305E+03  2.65861502E+03
         4   10       4.74890875E-05  3.41852488E+01  1.48855274E+03  1.44743647E+01  1.53721235E+03
         4   12       3.70640837E-02  5.80703523E+05  3.32341840E+07  1.00870477E-01  3.38148876E+07
         4   14       6.42346130E-02  3.10903746E+07  2.04849373E+06  2.55736497E+07  5.87125180E+07
         4   16       4.51889373E-02  2.04796491E+06  3.11034029E+07  8.15279008E+06  4.13041579E+07
         4   18       9.97165121E-05  4.34804262E+03  2.48961029E+05  5.23369393E-07  2.53309072E+05
         5    7       5.41700001E-05  2.37500479E-01  6.57491610E+02  1.64375152E-08  6.57729111E+02
         5    9       5.41695406E-05  6.57509153E+02  2.37349342E-01  3.24152776E-08  6.57746503E+02
         5   11       9.35233145E-02  9.05072453E-01  1.31076243E-02  7.33224832E+07  7.33224842E+07
         5   13       2.80581977E-02  3.07219974E+06  1.89696212E+07  2.04072755E-01  2.20418211E+07
         5   15       2.80582032E-02  1.89696395E+07  3.07218580E+06  2.88521499E+00  2.20418282E+07
         5   17       3.39025023E-02  8.00504946E-05  1.38965726E-05  7.87520624E+07  7.87520624E+07
         6    8       5.41700001E-05  2.37500479E-01  6.57491610E+02  1.64375152E-08  6.57729111E+02
         6   10       5.41695406E-05  6.57509153E+02  2.37349342E-01  3.24152776E-08  6.57746503E+02
         6   12       9.35233145E-02  9.05072453E-01  1.31076243E-02  7.33224832E+07  7.33224842E+07
         6   14       2.80581977E-02  3.07219974E+06  1.89696212E+07  2.04072755E-01  2.20418211E+07
         6   16       2.80582032E-02  1.89696395E+07  3.07218580E+06  2.88521499E+00  2.20418282E+07
         6   18       3.39025023E-02  8.00504946E-05  1.38965726E-05  7.87520624E+07  7.87520624E+07
         7   11       3.73942119E-02  8.12720749E+03  2.24661767E+07  1.79000762E-02  2.24743039E+07
         7   13       6.56533875E-02  1.84154566E+07  2.66566828E+06  1.84676535E+07  3.95487784E+07
         7   15       4.05131006E-02  2.66644947E+06  1.84073655E+07  3.33077295E+06  2.44045879E+07
         7   17       1.69760914E-02  1.22505834E+04  3.39256088E+07  1.50744755E-05  3.39378594E+07
         8   12       3.73942119E-02  8.12720749E+03  2.24661767E+07  1.79000762E-02  2.24743039E+07
         8   14       6.56533875E-02  1.84154566E+07  2.66566828E+06  1.84676535E+07  3.95487784E+07
         8   16       4.05131006E-02  2.66644947E+06  1.84073655E+07  3.33077295E+06  2.44045879E+07
         8   18       1.69760914E-02  1.22505834E+04  3.39256088E+07  1.50744755E-05  3.39378594E+07
         9   11       3.73644421E-02  2.24482081E+07  8.09149889E+03  8.85670838E-01  2.24563005E+07
         9   13       4.05279393E-02  2.66729380E+06  1.84153857E+07  3.33072250E+06  2.44134020E+07
         9   15       6.56680977E-02  1.84234870E+07  2.66654978E+06  1.84674123E+07  3.95574491E+07
         9   17       1.69760641E-02  3.39254617E+07  1.22505935E+04  6.29698258E-05  3.39377123E+07
        10   12       3.73644421E-02  2.24482081E+07  8.09149889E+03  8.85670838E-01  2.24563005E+07
        10   14       4.05279393E-02  2.66729380E+06  1.84153857E+07  3.33072250E+06  2.44134020E+07
        10   16       6.56680977E-02  1.84234870E+07  2.66654978E+06  1.84674123E+07  3.95574491E+07
        10   18       1.69760641E-02  3.39254617E+07  1.22505935E+04  6.29698258E-05  3.39377123E+07
        11   13       5.73683671E-03  6.30183259E-01  3.89104202E+00  1.66959756E-10  4.52122528E+00
        11   15       5.73654049E-03  3.89135226E+00  6.30200585E-01  3.02196962E-10  4.52155284E+00
        11   17       3.87577675E-02  1.20918123E+00  1.88323799E-02  1.58091056E+07  1.58091068E+07
        12   14       5.73683671E-03  6.30183259E-01  3.89104202E+00  1.66959756E-10  4.52122528E+00
        12   16       5.73654049E-03  3.89135226E+00  6.30200585E-01  3.02196962E-10  4.52155284E+00
        12   18       3.87577675E-02  1.20918123E+00  1.88323799E-02  1.58091056E+07  1.58091068E+07
        13   17       7.16188799E-02  4.06040142E+06  2.50714388E+07  4.25400317E-02  2.91318402E+07
        14   18       7.16188799E-02  4.06040142E+06  2.50714388E+07  4.25400317E-02  2.91318402E+07
        15   17       7.16189242E-02  2.50714513E+07  4.06040125E+06  6.16385362E-01  2.91318532E+07
        16   18       7.16189242E-02  2.50714513E+07  4.06040125E+06  6.16385362E-01  2.91318532E+07
     -----------------------------------------------------------------------------------------------
--

++ Length and velocity gauge comparison (SO states):

 --------------------------------------------------
 A comparison between the dipole oscillator strengths in 
 length and velocity gauge will be performed

 All dipole oscillator differences above the tolerance of   0.10000000000000001       will be printed 

 Due to basis set deficiency these oscillator may be problematic 

 The tolerance is defined as ABS(1-O_l/O_v) 
 O_l : dipole oscillator strength in length gauge
 O_p : dipole oscillator strength in velocity gauge
 --------------------------------------------------

  Problematic transitions have been found

      From   To       Difference (%) Osc. st. (len.) Osc. st. (vel.)
     ---------------------------------------------------------------
         1    5            91.588295  3.58516238E-05  4.26211148E-04
         1    7           343.172689  2.10445307E-04  4.74860731E-05
         1    9           564.076680  5.45481122E-04  8.21412856E-05
         1   17            89.257159  1.88720580E-04  9.97164816E-05
         2    6            91.588295  3.58516238E-05  4.26211148E-04
         2    8           343.172689  2.10445307E-04  4.74860731E-05
         2   10           564.076680  5.45481122E-04  8.21412856E-05
         2   18            89.257159  1.88720580E-04  9.97164816E-05
         3    5            91.588407  3.58516540E-05  4.26217178E-04
         3    7           564.116358  5.45467501E-04  8.21343271E-05
         3    9           343.154372  2.10449968E-04  4.74890875E-05
         3   17            89.256267  1.88719749E-04  9.97165121E-05
         4    6            91.588407  3.58516540E-05  4.26217178E-04
         4    8           564.116358  5.45467501E-04  8.21343271E-05
         4   10           343.154372  2.10449968E-04  4.74890875E-05
         4   18            89.256267  1.88719749E-04  9.97165121E-05
         5    7            43.185794  3.07762555E-05  5.41700001E-05
         5    9            43.183368  3.07773087E-05  5.41695406E-05
         5   11            14.384294  8.00706459E-02  9.35233145E-02
         5   17            37.168270  4.65034760E-02  3.39025023E-02
         6    8            43.185794  3.07762555E-05  5.41700001E-05
         6   10            43.183368  3.07773087E-05  5.41695406E-05
         6   12            14.384294  8.00706459E-02  9.35233145E-02
         6   18            37.168270  4.65034760E-02  3.39025023E-02
         7   11            10.119771  3.36100034E-02  3.73942119E-02
         7   17            38.878758  2.35761850E-02  1.69760914E-02
         8   12            10.119771  3.36100034E-02  3.73942119E-02
         8   18            38.878758  2.35761850E-02  1.69760914E-02
         9   11            10.119943  3.35831818E-02  3.73644421E-02
         9   17            38.878631  2.35761253E-02  1.69760641E-02
        10   12            10.119943  3.35831818E-02  3.73644421E-02
        10   18            38.878631  2.35761253E-02  1.69760641E-02
        11   13      --------------- below threshold  5.73683671E-03
        11   15      --------------- below threshold  5.73654049E-03
        11   17            62.566357  1.45084444E-02  3.87577675E-02
        12   14      --------------- below threshold  5.73683671E-03
        12   16      --------------- below threshold  5.73654049E-03
        12   18            62.566357  1.45084444E-02  3.87577675E-02
        13   17            40.080499  4.29136752E-02  7.16188799E-02
        14   18            40.080499  4.29136752E-02  7.16188799E-02
        15   17            40.080462  4.29137285E-02  7.16189242E-02
        16   18            40.080462  4.29137285E-02  7.16189242E-02
     ---------------------------------------------------------------

 Number of problematic transitions =                    42

--

 Electric-dipole - electric-octupole not included
++ I/O STATISTICS
 
  I. General I/O information
  - - - - - - - - - - - - - - - - - - - - - - - - - - - - - - - - - - - - - - - - - - -
  Unit  Name          Flsize      Write/Read            MBytes           Write/Read
                      (MBytes)       Calls              In/Out           Time, sec.
  - - - - - - - - - - - - - - - - - - - - - - - - - - - - - - - - - - - - - - - - - - -
   1  SCRATCH           0.00 .       9/      45 .      0.0/      0.0 .       0/       0
   2  ANNI              0.00 .       0/       0 .      0.0/      0.0 .       0/       0
   3  RUNFILE          15.28 .     322/   10517 .      2.3/     76.3 .       0/       0
   4  ONEINT            6.58 .       0/   28767 .      0.0/   3777.9 .       0/       0
   5  JOBIPH            7.71 .       0/      92 .      0.0/      0.9 .       0/       0
   6  ORDINT          771.03 .       1/    6169 .      0.0/   1542.0 .       0/       0
  - - - - - - - - - - - - - - - - - - - - - - - - - - - - - - - - - - - - - - - - - - -
   *  TOTAL           800.61 .     332/   45590 .      2.3/   5397.1 .       0/       0
  - - - - - - - - - - - - - - - - - - - - - - - - - - - - - - - - - - - - - - - - - - -
 
  II. I/O Access Patterns
  - - - - - - - - - - - - - - - - - - - -
  Unit  Name               % of random
                         Write/Read calls
  - - - - - - - - - - - - - - - - - - - -
   1  SCRATCH             88.9/ 100.0
   2  ANNI                 0.0/   0.0
   3  RUNFILE             28.6/  10.8
   4  ONEINT               0.0/  13.4
   5  JOBIPH               0.0/  76.1
   6  ORDINT             100.0/   0.0
  - - - - - - - - - - - - - - - - - - - -
--
--- Stop Module: rassi at Thu Jan  9 20:54:10 2025 /rc=_RC_ALL_IS_WELL_ ---
*** files: xmldump
    saved to directory /home4/s4752295/Internship/Initial_simulations/Point_charge_model/1_electron/active_space_9_non_rel/W/varying_bond_length
--- Module rassi spent 4 seconds ---

.##################.
.# Happy landing! #.
.##################.

    Timing: Wall=165.75 User=129.78 System=31.08

###############################################################################
Hbrk Cluster
Job 14549881 for user s4752295
Finished at: Thu Jan  9 20:54:11 CET 2025

Job details:
============

Job ID                         : 14549881
Name                           : W_no_c_light
User                           : s4752295
Partition                      : regularmedium
Nodes                          : node95
Number of Nodes                : 1
Cores                          : 1
Number of Tasks                : 1
State                          : RUNNING  
Submit                         : 2025-01-09T20:51:19
Start                          : 2025-01-09T20:51:20
End                            : --
Reserved walltime              : 15:00:00
Used walltime                  : 00:02:51
Used CPU time                  : -- 
% User (Computation)           : --
% System (I/O)                 : --
Total memory reserved          : 25000M
Maximum memory used            : --

Acknowledgements:
=================

Please see this page for information about acknowledging Hbrk in your publications:

https://wiki.hpc.rug.nl/habrok/introduction/scientific_output

################################################################################
