   This run of MOLCAS is using the pymolcas driver

                             OPE
                             OPE          NMOL  CASOP  ENMOLC A   SO
                 OPE        NMOLC        AS  OP EN  MO LC     AS  OP
                OPENM       OL CA        SO  PE NM  OL CA     SOP EN
                OP EN      MO   LC       AS  OP ENMOL  CASO   PENMOL
                OP  EN     MO   LC       AS  OP EN     MO     LC ASO
               OP   E  NMOL  C  AS       OP  EN MO     LC     AS  OP
               OP  E   NMO   LC AS        OPEN  MO     LCASOP EN   M
               O  PEN   MO  LCA  SO
            OPE   NMO   L   CAS    OP
        OPENMOL  CASOP     ENMOL   CASOPE
     OPENMOLCA   SOPENMOLCASOPEN   MOLCASOPE
    OPENMOLCAS   OP           EN   MOL    CAS
    OPENMOLCAS       OP  ENM        O     LCA
    OPENMOLCAS    OPEN  MOLCASO     P  E  NMO
    OPENMOLCAS     OP               E  N  MOL
    OPENMOLCA   SO           PENM   O  L  CAS    OPEN    MO    LCAS
    OPENMOLCA   SOP           ENM   O  L  CAS   OP  EN  MOLC  AS   O
    OPENMOLCA   SOPE           NM      O  LCA   S      OP  EN MO
    OPENMOLC                AS         O  PEN   M      OL  CA  SOPE
    OPENMO        LCASOPE  NMOL        C  ASO   P      ENMOLC     AS
    OPE     NMO      LCA  SO     P     E   NM   OL  CA SO  PE N   MO
          OPENMOLCA            SOPE   NMO        LCAS  O    P  ENMO
     OPENMOLCASOPENMOLCASOPENMOLCASOPENMOLCA
        OPENMOLCASOPENMOLCASOPENMOLCASOPE
            OPENMOLCASOPENMOLCASOPENM
               OPENMOLCASOPENMOLCA        version: o91e1abe7de707b ?
                   OPENMOLCASO
                       OPE                tag:

 OpenMolcas is free software; you can redistribute it and/or modify it
 under the terms of the GNU Lesser General Public License version 2.1.
 OpenMolcas is distributed in the hope that it will be useful, but it
 is provided "as is" and without any express or implied warranties.
 For more details see the full text of the license in the file
 LICENSE or in <http://www.gnu.org/licenses/>.

                 Copyright (C) The OpenMolcas Authors
           For the author list and the recommended citation,
                   consult the file CONTRIBUTORS.md

           *************************************************
           * pymolcas version py2.10                       *
           *   build 3068ae8b88c9345ec6cfef6fef7f1169      *
           *   (after the EMIL interpreter by V. Veryazov) *
           *************************************************

configuration info
------------------
Host name: login1 (Linux)
C Compiler ID: GNU
C flags: -std=gnu99
Fortran Compiler ID: GNU
Fortran flags: -fno-aggressive-loop-optimizations -cpp -fdefault-integer-8 -fmax-stack-var-size=1048576
Definitions: _MOLCAS_;_I8_;_LINUX_;_MKL_
Parallel: OFF (GA=OFF)


   ---------------------------------------------------------------------------------------------------------------------------------------------
  |
  |           Project: tungsten_so_cf
  |    Submitted from: /home4/s4752295/Internship/Initial_simulations/Point_charge_model/1_electron/active_space_9_non_rel/W/varying_bond_length
  |      Scratch area: /tmp/tungsten_so_cf
  |   Save outputs to: /home4/s4752295/Internship/Initial_simulations/Point_charge_model/1_electron/active_space_9_non_rel/W/varying_bond_length
  |            Molcas: /home4/s4752295/Internship/Molcas/recomp_try/OpenMolcas-master/build
  |
  | Scratch area is empty
  |
  |    MOLCAS_DRIVER = /home4/s4752295/Internship/Molcas/bin/pymolcas
  |    MOLCAS_NPROCS = 1
  |    MOLCAS_SOURCE = /home4/s4752295/Internship/Molcas/recomp_try/OpenMolcas-master
  | MOLCAS_STRUCTURE = 0
  |
   ---------------------------------------------------------------------------------------------------------------------------------------------

++ ---------   Input file   ---------

&SEWARD
AMFi

CLIG
$R

Basis Set
W.ANO-rcc.Roos.24s21p15d11f4g2h.11s10p9d8f4g2h.
Spherical d
W            0.0        0.0     0.0
End of Basis

Xfield

4
0.000000,  0.0000,  0.210       -1.0
0.181865,  0.0000, -0.105       -1.0
-0.090933,  0.1575, -0.105      -1.0
-0.090933, -0.1575, -0.105      -1.0

End of input

&SCF
Occupied
34
Iterations
   50  100
End of Input

&RASSCF
LumOrb
Symmetry
1
Spin
2
Nactel
1 0 0
CIRoot
9 9 1
inactive
34
ras2
9
End of Input

>>> COPY tungsten_so_cf.JobIph $SLURM_SUBMIT_DIR/tungsten_so_cf.doublet.JobIph

>>> COPY $SLURM_SUBMIT_DIR/tungsten_so_cf.doublet.JobIph ./JOB002

&RASSI
NROFJobIph
1 All
SpinOrbit
End of Input

EOF

-- ----------------------------------

--- Start Module: seward at Thu Jan  9 21:06:05 2025 ---

()()()()()()()()()()()()()()()()()()()()()()()()()()()()()()()()()()()()()()()()()()()()()()()()()()

                                              &SEWARD

                                   only a single process is used
                       available to each process: 4.1 GB of memory, 1 thread?
                                            pid: 3816477
()()()()()()()()()()()()()()()()()()()()()()()()()()()()()()()()()()()()()()()()()()()()()()()()()()

 The speed of LIGHT in this CALCULATION =   137.03599917700001     
               SEWARD will generate:
                  Multipole Moment integrals up to order  2
                  Kinetic Energy integrals
                  Nuclear Attraction integrals (point charge)
                  One-Electron Hamiltonian integrals
                  Velocity integrals
                  Relativistic Douglas-Kroll-Hess integrals:
                    - Parametrization         : EXP
                    - DKH order of Hamiltonian: 2
                    - DKH order of Properties : 0
                         - multipole moment operators
                         - electric potential operators
                         - contact operators
                  External field from     4 point(s) added to the one-electron Hamiltonian
                  Orbital angular momentum around ( 0.0000  0.0000  0.0000 )
                  Velocity quadrupole around ( 0.0000  0.0000  0.0000 )
                  Atomic mean-field integrals
                  Two-Electron Repulsion integrals

                   Integrals are discarded if absolute value <: 0.10E-13
                   Integral cutoff threshold is set to       <: 0.10E-15

++    Symmetry information:
      ---------------------

                    Character Table for C1 

                             E  
                    a        1  x, y, xy, Rz, z, xz, Ry, yz, Rx, I
--


++    Basis set information:
      ----------------------


      Basis set label: W.ANO-RCC.ROOS.24S21P15D11F4G2H.11S10P9D8F4G2H......

      Electronic valence basis set:
      ------------------
      Associated Effective Charge  74.000000 au
      Associated Actual Charge     74.000000 au
      Nuclear Model: Point charge

      Shell  nPrim  nBasis  Cartesian Spherical Contaminant
         s      24      11        X                  
         p      21      10        X                  
         d      15       9                 X         
         f      11       8                 X         
         g       4       4                 X         
         h       2       2                 X         
--


++    Molecular structure info:
      -------------------------

                    ************************************************ 
                    **** Cartesian Coordinates / Bohr, Angstrom **** 
                    ************************************************ 

     Center  Label                x              y              z                     x              y              z
        1      W                0.000000       0.000000       0.000000              0.000000       0.000000       0.000000
--


++    Operator info:
      --------------


  Net charge from external field:   -4.0000000000000000     
--


            Nuclear Potential Energy              0.00000000 au

                    Nuclear-External Field Potential Energy   -1409.52381271 au
                    External Field Potential Energy              17.77167056 au 


            Total Nuclear Potential Energy          -1409.52381271 au


      Basis set specifications :
      Symmetry species         a  
      Basis functions          200

 Sorry, Molden does not know how to handle
 functions with angular momentum larger than g
Note: The following floating-point exceptions are signalling: IEEE_UNDERFLOW_FLAG IEEE_DENORMAL
--- Stop Module: seward at Thu Jan  9 21:06:24 2025 /rc=_RC_ALL_IS_WELL_ ---
*** files: tungsten_so_cf.GssOrb xmldump
    saved to directory /home4/s4752295/Internship/Initial_simulations/Point_charge_model/1_electron/active_space_9_non_rel/W/varying_bond_length
--- Module seward spent 18 seconds ---

*** symbolic link created: INPORB -> tungsten_so_cf.GssOrb
--- Start Module: scf at Thu Jan  9 21:06:24 2025 ---

()()()()()()()()()()()()()()()()()()()()()()()()()()()()()()()()()()()()()()()()()()()()()()()()()()

                                                &SCF

                                   only a single process is used
                       available to each process: 4.1 GB of memory, 1 thread?
                                            pid: 3816486
()()()()()()()()()()()()()()()()()()()()()()()()()()()()()()()()()()()()()()()()()()()()()()()()()()

++    Input section:
      --------------

      Header of the integral files:
      
       Integrals generated by seward 4.2.0  , Thu Jan  9 21:06:06 2025


      Cartesian coordinates in Angstrom:
      -----------------------------------------------------
      No.  Label        X            Y            Z        
      -----------------------------------------------------
       1   W          0.00000000   0.00000000   0.00000000
      -----------------------------------------------------
      Nuclear repulsion energy =-1409.52381271
--

++    Orbital specifications:
      -----------------------

      Symmetry species               1
                                     a
      Frozen orbitals                0
      Occupied orbitals             34
      Secondary orbitals           166
      Deleted orbitals               0
      Total number of orbitals     200
      Number of basis functions    200
--

      Molecular charge                           6.000

++    Optimization specifications:
      ----------------------------

      SCF Algorithm: Conventional
      Minimized density differences are used
      Number of density matrices in core                5
      Maximum number of NDDO SCF iterations            50
      Maximum number of HF SCF iterations             100
      Threshold for SCF energy change            0.10E-08
      Threshold for density matrix               0.10E-03
      Threshold for Fock matrix                  0.15E-03
      Threshold for linear dependence            0.10E-08
      Threshold at which DIIS is turned on       0.15E+00
      Threshold at which QNR/C2DIIS is turned on 0.75E-01
      Threshold for Norm(delta) (QNR/C2DIIS)     0.20E-04
      DIIS extrapolation of the SCF procedure
      All orbitals punched on: SCFORB
--

      Detected guessorb starting orbitals                                             


++ Convergence information
                                   SCF        iterations: Energy and convergence statistics

Iter     Tot. SCF        One-elec.       Two-elec.     Energy      Max Dij or  Max Fij      DNorm      TNorm      AccCon     Time
         Energy          Energy          Energy        Change      Delta Norm                                                in Sec.

 The total and one-electron energies are shifted by a value of     16000. a.u.

   1  -708.298505113 -5092.094280847  5793.319588443   0.00E+00    0.45E+00*   0.25E+01*    0.12E+02   0.15E+04   None         1.
   2  -617.394044163 -3473.095509147  4265.225277693   0.91E+02*   0.33E+00*   0.68E+00*    0.86E+01   0.13E+04   EDIIS        1.
   3  -722.378472663 -4610.724208253  5297.869548299  -0.10E+03*   0.23E+00*   0.74E+00*    0.37E+01   0.15E+04   EDIIS        1.
   4  -721.914056281 -4873.823189161  5561.432945589   0.46E+00*   0.72E+00*   0.31E+00*    0.49E+00   0.15E+04   EDIIS        1.
   5  -724.224738863 -4676.578618152  5361.877691999  -0.23E+01*   0.29E+00*   0.16E+00*    0.17E+01   0.15E+04   EDIIS        1.
   6  -723.903122799 -4782.670700500  5468.291390410   0.32E+00*   0.13E+00*   0.79E-01*    0.49E+00   0.15E+04   EDIIS        1.
   7  -724.384586851 -4719.329465791  5404.468691650  -0.48E+00*   0.49E+00*   0.93E-01*    0.21E+00   0.15E+04   EDIIS        1.
   8  -724.335421420 -4658.801449996  5343.989841286   0.49E-01*   0.23E+00*   0.56E-01*    0.25E+00   0.15E+04   EDIIS        1.
   9  -724.472892125 -4702.907615091  5387.958535676  -0.14E+00*   0.32E+00*   0.74E-01*    0.92E-01   0.15E+04   EDIIS        1.
  10  -724.513377425 -4675.070148895  5360.080584180  -0.40E-01*   0.62E-01*   0.80E-01*    0.65E-01   0.15E+04   EDIIS        1.
  11  -724.500242414 -4715.437257561  5400.460827856   0.13E-01*   0.15E+00*   0.27E-01*    0.61E-01   0.15E+04   c2DIIS       1.
  12  -724.569953769 -4698.267593803  5383.221452744  -0.70E-01*   0.97E-01*   0.30E+00*    0.99E-02   0.15E+04   c2DIIS       1.
  13  -724.592528800 -4699.925538425  5384.856822335  -0.23E-01*   0.19E+00*   0.73E-01*    0.17E+00   0.15E+04   c2DIIS       1.
  14  -724.634334575 -4669.945552047  5354.835030182  -0.42E-01*   0.74E-01*   0.17E+00*    0.60E-01   0.15E+04   c2DIIS       1.
  15  -724.617222537 -4695.435929997  5380.342520170   0.17E-01*   0.11E+00*   0.79E-01*    0.43E-01   0.15E+04   QNRc2DIIS    1.
  16  -724.613812575 -4658.419242110  5343.329242244   0.34E-02*   0.48E-01*   0.10E+00*    0.92E-01   0.15E+04   QNRc2DIIS    1.
  17  -724.657335908 -4678.099902564  5362.966379366  -0.44E-01*   0.31E-01*   0.78E-02*    0.26E-01   0.15E+04   QNRc2DIIS    1.
  18  -724.658415302 -4677.601927324  5362.467324731  -0.11E-02*   0.37E-01*   0.54E-02*    0.48E-01   0.15E+04   QNRc2DIIS    1.
  19  -724.659061202 -4677.695527311  5362.560278819  -0.65E-03*   0.27E-01*   0.41E-02*    0.25E-01   0.15E+04   QNRc2DIIS    1.
  20  -724.659305326 -4677.979795586  5362.844302970  -0.24E-03*   0.32E-01*   0.23E-02*    0.13E-01   0.15E+04   QNRc2DIIS    1.
  21  -724.659575410 -4678.187579447  5363.051816746  -0.27E-03*   0.17E-01*   0.23E-02*    0.15E-01   0.15E+04   QNRc2DIIS    1.
  22  -724.659678063 -4678.286108863  5363.150243509  -0.10E-03*   0.38E-01*   0.21E-02*    0.45E-02   0.15E+04   QNRc2DIIS    1.
  23  -724.659858515 -4678.369384864  5363.233339059  -0.18E-03*   0.47E-02*   0.78E-03*    0.79E-02   0.15E+04   QNRc2DIIS    1.
  24  -724.659868697 -4678.319127498  5363.183071511  -0.10E-04*   0.35E-02*   0.55E-03*    0.34E-02   0.15E+04   QNRc2DIIS    1.
  25  -724.659874921 -4678.305638708  5363.169576497  -0.62E-05*   0.41E-03*   0.10E-03     0.13E-02   0.15E+04   QNRc2DIIS    1.
  26  -724.659875120 -4678.309657145  5363.173594734  -0.20E-06*   0.29E-03*   0.86E-04     0.27E-03   0.15E+04   QNRc2DIIS    1.
  27  -724.659875216 -4678.314627306  5363.178564800  -0.96E-07*   0.21E-03*   0.49E-04     0.39E-03   0.15E+04   QNRc2DIIS    1.
  28  -724.659875241 -4678.316627313  5363.180564781  -0.25E-07*   0.78E-04*   0.28E-04     0.26E-03   0.15E+04   QNRc2DIIS    1.
  29  -724.659875252 -4678.315676433  5363.179613891  -0.10E-07*   0.64E-04*   0.16E-04     0.14E-03   0.15E+04   QNRc2DIIS    1.
  30  -724.659875255 -4678.315212444  5363.179149899  -0.33E-08*   0.38E-04*   0.78E-05     0.48E-04   0.15E+04   QNRc2DIIS    1.
  31  -724.659875256 -4678.315096271  5363.179033724  -0.12E-08*   0.20E-04    0.32E-05     0.15E-03   0.15E+04   QNRc2DIIS    1.
  32  -724.659875257 -4678.315289431  5363.179226884  -0.37E-09    0.41E-05    0.62E-06     0.17E-02   0.15E+04   QNRc2DIIS    1.

       Convergence after 32 Macro Iterations
--

 *****************************************************************************************************************************
 *                                                                                                                           *
 *                                             SCF/KS-DFT Program, Final results                                             *
 *                                                                                                                           *
 *                                                                                                                           *
 *                                                                                                                           *
 *                                                       Final Results                                                       *
 *                                                                                                                           *
 *****************************************************************************************************************************

::    Total SCF energy                             -16724.6598752565
      One-electron energy                          -20678.3152894308
      Two-electron energy                            5363.1792268838
      Nuclear repulsion energy                      -1409.5238127095
      Kinetic energy (interpolated)                 22252.6150002142
      Virial theorem                                    0.7515817748
      Total spin, S(S+1)                                0.0000000000
      Total spin, S                                     0.0000000000
      Max non-diagonal density matrix element           0.0000040241
      Max non-diagonal Fock matrix element              0.0000005627


      All orbitals with orbital energies smaller than  E(LUMO)+0.5 are printed

++    Molecular orbitals:
      -------------------

      Title: SCF orbitals

      Molecular orbitals for symmetry species 1: a  

          Some orbital energies have been scaled by powers of 10, the power is written right after the orbital index


          Orbital            1 (1)     2         3         4         5         6         7         8         9        10    
          Energy         -255.8913 -442.6903 -388.1648 -388.1648 -387.9544 -100.3394  -84.1614  -84.1614  -83.1292  -64.4376
          Occ. No.          2.0000    2.0000    2.0000    2.0000    2.0000    2.0000    2.0000    2.0000    2.0000    2.0000

        1 W      1s         1.0000    0.0000    0.0000   -0.0000   -0.0000   -0.0000   -0.0000   -0.0000    0.0000    0.0000
        2 W      2s        -0.0000    1.0000    0.0000   -0.0000   -0.0066    0.0006   -0.0000   -0.0000   -0.0005    0.0000
        3 W      3s         0.0000   -0.0007    0.0000    0.0000    0.0004    0.9985   -0.0000   -0.0000   -0.0472    0.0000
        4 W      4s        -0.0000    0.0003    0.0000   -0.0000   -0.0001    0.0137    0.0000    0.0000   -0.0024    0.0000
        5 W      5s         0.0000   -0.0001   -0.0000    0.0000    0.0000   -0.0036   -0.0000   -0.0000    0.0005   -0.0000
        6 W      6s        -0.0000    0.0000    0.0000   -0.0000   -0.0000    0.0009    0.0000    0.0000   -0.0001    0.0000
        7 W      7s         0.0000   -0.0000   -0.0000    0.0000    0.0000   -0.0011   -0.0000   -0.0000    0.0001   -0.0000
        8 W      8s        -0.0000    0.0001    0.0000   -0.0000   -0.0000    0.0026    0.0000    0.0000   -0.0004    0.0000
        9 W      9s         0.0000   -0.0001   -0.0000    0.0000    0.0000   -0.0033   -0.0000   -0.0000    0.0004   -0.0000
       10 W     10s        -0.0000    0.0002    0.0000   -0.0000   -0.0001    0.0035    0.0000    0.0000   -0.0004    0.0000
       11 W     11s         0.0000   -0.0002   -0.0000   -0.0000    0.0001   -0.0036   -0.0000   -0.0000    0.0002   -0.0000
       12 W      2px       -0.0000   -0.0000    0.1673    0.9859   -0.0000   -0.0000    0.0001    0.0004   -0.0000   -0.0002
       13 W      3px        0.0000   -0.0000   -0.0001   -0.0005    0.0000    0.0000    0.1677    0.9823   -0.0000   -0.0006
       14 W      4px       -0.0000    0.0000    0.0000    0.0002   -0.0000    0.0000    0.0025    0.0148   -0.0000    0.0000
       15 W      5px        0.0000   -0.0000   -0.0000   -0.0001    0.0000   -0.0000   -0.0006   -0.0037    0.0000    0.0000
       16 W      6px       -0.0000    0.0000    0.0000    0.0000   -0.0000    0.0000    0.0003    0.0015   -0.0000   -0.0000
       17 W      7px        0.0000   -0.0000   -0.0000   -0.0001    0.0000   -0.0000   -0.0007   -0.0042    0.0000    0.0000
       18 W      8px       -0.0000    0.0000    0.0000    0.0001   -0.0000    0.0000    0.0007    0.0040   -0.0000   -0.0000
       19 W      9px        0.0000   -0.0000   -0.0000   -0.0001    0.0000   -0.0000   -0.0007   -0.0038    0.0000    0.0001
       20 W     10px       -0.0000    0.0000    0.0000    0.0002   -0.0000    0.0000    0.0005    0.0031   -0.0000   -0.0001
       21 W     11px        0.0000   -0.0000   -0.0000   -0.0002    0.0000   -0.0000   -0.0003   -0.0017    0.0000    0.0002
       22 W      2py        0.0000    0.0000    0.9859   -0.1673    0.0000   -0.0000    0.0004   -0.0001    0.0000   -0.0001
       23 W      3py       -0.0000    0.0000   -0.0005    0.0001   -0.0000    0.0000    0.9823   -0.1677    0.0000   -0.0003
       24 W      4py        0.0000   -0.0000    0.0002   -0.0000    0.0000    0.0000    0.0148   -0.0025    0.0000    0.0000
       25 W      5py       -0.0000    0.0000   -0.0001    0.0000   -0.0000   -0.0000   -0.0037    0.0006   -0.0000    0.0000
       26 W      6py       -0.0000    0.0000    0.0000   -0.0000   -0.0000    0.0000    0.0015   -0.0003    0.0000   -0.0000
       27 W      7py        0.0000   -0.0000   -0.0001    0.0000   -0.0000   -0.0000   -0.0042    0.0007   -0.0000    0.0000
       28 W      8py       -0.0000    0.0000    0.0001   -0.0000    0.0000    0.0000    0.0040   -0.0007    0.0000   -0.0000
       29 W      9py        0.0000   -0.0000   -0.0001    0.0000   -0.0000   -0.0000   -0.0038    0.0007   -0.0000    0.0000
       30 W     10py       -0.0000    0.0000    0.0002   -0.0000    0.0000    0.0000    0.0031   -0.0005    0.0000   -0.0000
       31 W     11py        0.0000   -0.0000   -0.0002    0.0000   -0.0000   -0.0000   -0.0017    0.0003    0.0000    0.0001
       32 W      2pz        0.0000    0.0066   -0.0000    0.0000    1.0000   -0.0003   -0.0000   -0.0000    0.0011   -0.0000
       33 W      3pz       -0.0000    0.0004    0.0000   -0.0000   -0.0011    0.0465   -0.0000    0.0000    0.9977   -0.0000
       34 W      4pz        0.0000   -0.0002   -0.0000    0.0000    0.0004   -0.0006   -0.0000   -0.0000    0.0174   -0.0000
       35 W      5pz       -0.0000    0.0001    0.0000   -0.0000   -0.0001    0.0001    0.0000    0.0000   -0.0043    0.0000
       36 W      6pz        0.0000   -0.0000   -0.0000    0.0000    0.0001   -0.0000   -0.0000   -0.0000    0.0017   -0.0000
       37 W      7pz       -0.0000    0.0001    0.0000   -0.0000   -0.0002    0.0001    0.0000    0.0000   -0.0048    0.0000
       38 W      8pz        0.0000   -0.0001   -0.0000    0.0000    0.0002   -0.0000   -0.0000   -0.0000    0.0045   -0.0000
       39 W      9pz       -0.0000    0.0001    0.0000   -0.0000   -0.0002   -0.0000    0.0000    0.0000   -0.0042    0.0000
       40 W     10pz        0.0000   -0.0001   -0.0000    0.0000    0.0003    0.0001   -0.0000   -0.0000    0.0032   -0.0000
       41 W     11pz       -0.0000    0.0001    0.0000   -0.0000   -0.0004   -0.0004    0.0000    0.0000   -0.0011   -0.0000
       42 W      3d2-       0.0000    0.0000    0.0007   -0.0001    0.0000    0.0000    0.0433   -0.0074    0.0000   -0.3299
       43 W      4d2-      -0.0000   -0.0000   -0.0002    0.0000   -0.0000    0.0000    0.0002   -0.0000    0.0000   -0.0052
       44 W      5d2-       0.0000    0.0000    0.0000   -0.0000    0.0000   -0.0000   -0.0001    0.0000    0.0000    0.0009
       45 W      6d2-      -0.0000   -0.0000   -0.0000    0.0000   -0.0000    0.0000    0.0002   -0.0000    0.0000   -0.0012
       46 W      7d2-       0.0000    0.0000    0.0001   -0.0000    0.0000   -0.0000   -0.0003    0.0001   -0.0000    0.0016
       47 W      8d2-      -0.0000   -0.0000   -0.0001    0.0000   -0.0000    0.0000    0.0005   -0.0001    0.0000   -0.0017
       48 W      9d2-       0.0000    0.0000    0.0001   -0.0000    0.0000   -0.0000   -0.0007    0.0001   -0.0000    0.0015
       49 W     10d2-      -0.0000   -0.0000   -0.0001    0.0000   -0.0000    0.0000    0.0012   -0.0002    0.0000   -0.0013
       50 W     11d2-       0.0000    0.0000    0.0001   -0.0000    0.0000   -0.0000   -0.0021    0.0004   -0.0000    0.0004
       51 W      3d1-      -0.0000   -0.0000    0.0014   -0.0002    0.0000   -0.0000    0.0672   -0.0115    0.0000    0.2165
       52 W      4d1-       0.0000    0.0000   -0.0004    0.0001   -0.0000   -0.0000    0.0004   -0.0001    0.0000    0.0035
       53 W      5d1-      -0.0000   -0.0000    0.0001   -0.0000    0.0000    0.0000   -0.0002    0.0000   -0.0000   -0.0006
       54 W      6d1-       0.0000    0.0000   -0.0001    0.0000   -0.0000   -0.0000    0.0003   -0.0001    0.0000    0.0008
       55 W      7d1-      -0.0000   -0.0000    0.0001   -0.0000    0.0000    0.0000   -0.0005    0.0001   -0.0000   -0.0011
       56 W      8d1-       0.0000    0.0000   -0.0002    0.0000   -0.0000   -0.0000    0.0008   -0.0001    0.0000    0.0011
       57 W      9d1-      -0.0000   -0.0000    0.0002   -0.0000    0.0000    0.0000   -0.0011    0.0002   -0.0000   -0.0010
       58 W     10d1-      -0.0000    0.0000   -0.0002    0.0000   -0.0000   -0.0000    0.0017   -0.0003    0.0000    0.0009
       59 W     11d1-       0.0000   -0.0000    0.0002   -0.0000    0.0000    0.0000   -0.0030    0.0005   -0.0000   -0.0004
       60 W      3d0       -0.0000   -0.0006   -0.0000   -0.0000   -0.0003   -0.0176   -0.0000   -0.0000   -0.0437    0.0000
       61 W      4d0        0.0000    0.0002    0.0000    0.0000    0.0000    0.0001   -0.0000   -0.0000   -0.0001    0.0000
       62 W      5d0       -0.0000   -0.0000    0.0000    0.0000   -0.0000    0.0000    0.0000    0.0000    0.0001   -0.0000
       63 W      6d0        0.0000    0.0000   -0.0000   -0.0000    0.0000   -0.0001   -0.0000   -0.0000   -0.0002    0.0000
       64 W      7d0       -0.0000   -0.0001    0.0000    0.0000    0.0000    0.0001    0.0000    0.0000    0.0003   -0.0000
       65 W      8d0        0.0000    0.0001   -0.0000   -0.0000   -0.0000   -0.0002   -0.0000   -0.0000   -0.0005    0.0000
       66 W      9d0       -0.0000   -0.0001    0.0000    0.0000    0.0000    0.0004    0.0000    0.0000    0.0008   -0.0000
       67 W     10d0        0.0000    0.0001   -0.0000   -0.0000   -0.0000   -0.0007   -0.0000   -0.0000   -0.0013    0.0000
       68 W     11d0       -0.0000   -0.0001    0.0000    0.0000    0.0001    0.0014    0.0000    0.0000    0.0024    0.0000
       69 W      3d1+       0.0000    0.0000    0.0002    0.0014   -0.0000    0.0000    0.0115    0.0672   -0.0000    0.5040
       70 W      4d1+      -0.0000   -0.0000   -0.0001   -0.0004    0.0000   -0.0000    0.0001    0.0004    0.0000    0.0081
       71 W      5d1+       0.0000    0.0000    0.0000    0.0001   -0.0000    0.0000   -0.0000   -0.0002   -0.0000   -0.0014
       72 W      6d1+      -0.0000   -0.0000   -0.0000   -0.0001    0.0000   -0.0000    0.0001    0.0003    0.0000    0.0019
       73 W      7d1+       0.0000    0.0000    0.0000    0.0001   -0.0000    0.0000   -0.0001   -0.0005   -0.0000   -0.0024
       74 W      8d1+      -0.0000   -0.0000   -0.0000   -0.0002    0.0000   -0.0000    0.0001    0.0008    0.0000    0.0026
       75 W      9d1+       0.0000    0.0000    0.0000    0.0002   -0.0000    0.0000   -0.0002   -0.0011   -0.0000   -0.0024
       76 W     10d1+      -0.0000   -0.0000   -0.0000   -0.0002    0.0000   -0.0000    0.0003    0.0017    0.0000    0.0022
       77 W     11d1+       0.0000    0.0000    0.0000    0.0002   -0.0000    0.0000   -0.0005   -0.0030   -0.0000   -0.0008
       78 W      3d2+      -0.0000   -0.0000   -0.0001   -0.0007    0.0000   -0.0000   -0.0074   -0.0433    0.0000    0.7680
       79 W      4d2+       0.0000    0.0000    0.0000    0.0002   -0.0000    0.0000   -0.0000   -0.0002   -0.0000    0.0121
       80 W      5d2+      -0.0000   -0.0000   -0.0000   -0.0000    0.0000   -0.0000    0.0000    0.0001    0.0000   -0.0021
       81 W      6d2+       0.0000    0.0000    0.0000    0.0000   -0.0000    0.0000   -0.0000   -0.0002   -0.0000    0.0029
       82 W      7d2+      -0.0000   -0.0000   -0.0000   -0.0001    0.0000   -0.0000    0.0001    0.0003    0.0000   -0.0036
       83 W      8d2+       0.0000    0.0000    0.0000    0.0001   -0.0000    0.0000   -0.0001   -0.0005   -0.0000    0.0039
       84 W      9d2+      -0.0000   -0.0000   -0.0000   -0.0001    0.0000   -0.0000    0.0001    0.0007    0.0000   -0.0035
       85 W     10d2+       0.0000    0.0000    0.0000    0.0001   -0.0000    0.0000   -0.0002   -0.0012   -0.0000    0.0031
       86 W     11d2+      -0.0000   -0.0000   -0.0000   -0.0001    0.0000    0.0000    0.0004    0.0021   -0.0000   -0.0009
       87 W      4f3-      -0.0000   -0.0000   -0.0000    0.0000   -0.0000   -0.0000   -0.0000    0.0000   -0.0000   -0.0000
       88 W      5f3-       0.0000    0.0000    0.0000   -0.0000    0.0000    0.0000    0.0000   -0.0000    0.0000    0.0000
       89 W      6f3-      -0.0000   -0.0000   -0.0000    0.0000   -0.0000   -0.0000   -0.0000    0.0000   -0.0000   -0.0000
       90 W      7f3-       0.0000    0.0000    0.0000   -0.0000    0.0000    0.0000    0.0000   -0.0000   -0.0000    0.0000
       91 W      8f3-      -0.0000   -0.0000   -0.0000    0.0000   -0.0000   -0.0000   -0.0000    0.0000    0.0000   -0.0000
       92 W      9f3-       0.0000    0.0000    0.0000   -0.0000    0.0000    0.0000    0.0000   -0.0000   -0.0000    0.0000
       93 W     10f3-       0.0000   -0.0000   -0.0000    0.0000   -0.0000   -0.0000   -0.0000    0.0000   -0.0000   -0.0000
       94 W     11f3-      -0.0000    0.0000    0.0000   -0.0000    0.0000   -0.0000    0.0000   -0.0000    0.0000   -0.0000
       95 W      4f2-       0.0000    0.0000   -0.0001    0.0000    0.0000   -0.0000   -0.0032    0.0006    0.0000   -0.0017
       96 W      5f2-      -0.0000   -0.0000    0.0001   -0.0000   -0.0000    0.0000    0.0024   -0.0004   -0.0000    0.0013
       97 W      6f2-       0.0000    0.0000   -0.0001    0.0000    0.0000   -0.0000   -0.0025    0.0004    0.0000   -0.0013
       98 W      7f2-      -0.0000   -0.0000    0.0001   -0.0000   -0.0000   -0.0000    0.0024   -0.0004   -0.0000    0.0012
       99 W      8f2-       0.0000    0.0000   -0.0001    0.0000    0.0000   -0.0000   -0.0024    0.0004    0.0000   -0.0011
      100 W      9f2-      -0.0000   -0.0000    0.0001   -0.0000   -0.0000    0.0000    0.0020   -0.0003   -0.0000    0.0009
      101 W     10f2-       0.0000    0.0000   -0.0001    0.0000    0.0000   -0.0000   -0.0020    0.0003    0.0000   -0.0009
      102 W     11f2-      -0.0000   -0.0000    0.0002   -0.0000   -0.0000    0.0000    0.0016   -0.0003   -0.0000    0.0007
      103 W      4f1-      -0.0000   -0.0000   -0.0001    0.0000   -0.0000   -0.0000   -0.0016    0.0003   -0.0000    0.0007
      104 W      5f1-      -0.0000    0.0000    0.0001   -0.0000    0.0000    0.0000    0.0013   -0.0002    0.0000   -0.0005
      105 W      6f1-      -0.0000   -0.0000   -0.0001    0.0000   -0.0000   -0.0000   -0.0013    0.0002   -0.0000    0.0005
      106 W      7f1-       0.0000    0.0000    0.0001   -0.0000    0.0000    0.0000    0.0012   -0.0002    0.0000   -0.0005
      107 W      8f1-      -0.0000   -0.0000   -0.0001    0.0000   -0.0000   -0.0000   -0.0012    0.0002   -0.0000    0.0004
      108 W      9f1-       0.0000    0.0000    0.0001   -0.0000    0.0000    0.0000    0.0010   -0.0002    0.0000   -0.0004
      109 W     10f1-      -0.0000   -0.0000   -0.0001    0.0000   -0.0000   -0.0000   -0.0010    0.0002   -0.0000    0.0003
      110 W     11f1-       0.0000    0.0000    0.0001   -0.0000    0.0000    0.0000    0.0008   -0.0001    0.0000   -0.0003
      111 W      4f0       -0.0000   -0.0002    0.0000   -0.0000   -0.0001   -0.0069    0.0000    0.0000   -0.0023   -0.0000
      112 W      5f0        0.0000    0.0002   -0.0000    0.0000    0.0001    0.0053   -0.0000   -0.0000    0.0017    0.0000
      113 W      6f0       -0.0000   -0.0002    0.0000   -0.0000   -0.0001   -0.0055    0.0000    0.0000   -0.0017   -0.0000
      114 W      7f0        0.0000    0.0002   -0.0000    0.0000    0.0001    0.0054   -0.0000   -0.0000    0.0016    0.0000
      115 W      8f0       -0.0000   -0.0003    0.0000   -0.0000   -0.0001   -0.0053    0.0000    0.0000   -0.0016   -0.0000
      116 W      9f0        0.0000    0.0003    0.0000    0.0000    0.0001    0.0046   -0.0000   -0.0000    0.0014    0.0000
      117 W     10f0       -0.0000   -0.0004   -0.0000   -0.0000   -0.0001   -0.0045    0.0000    0.0000   -0.0013   -0.0000
      118 W     11f0        0.0000    0.0005    0.0000    0.0000    0.0002    0.0038   -0.0000    0.0000    0.0011    0.0000
      119 W      4f1+      -0.0000   -0.0000   -0.0000   -0.0001    0.0000   -0.0000   -0.0003   -0.0016    0.0000    0.0017
      120 W      5f1+       0.0000    0.0000    0.0000    0.0001   -0.0000    0.0000    0.0002    0.0013   -0.0000   -0.0012
      121 W      6f1+      -0.0000   -0.0000   -0.0000   -0.0001    0.0000   -0.0000   -0.0002   -0.0013    0.0000    0.0012
      122 W      7f1+       0.0000    0.0000    0.0000    0.0001   -0.0000    0.0000    0.0002    0.0012   -0.0000   -0.0011
      123 W      8f1+      -0.0000   -0.0000   -0.0000   -0.0001    0.0000   -0.0000   -0.0002   -0.0012    0.0000    0.0010
      124 W      9f1+       0.0000    0.0000    0.0000    0.0001   -0.0000    0.0000    0.0002    0.0010   -0.0000   -0.0009
      125 W     10f1+      -0.0000   -0.0000   -0.0000   -0.0001    0.0000   -0.0000   -0.0002   -0.0010    0.0000    0.0008
      126 W     11f1+       0.0000    0.0000    0.0000    0.0001   -0.0000    0.0000    0.0001    0.0008   -0.0000   -0.0007
      127 W      4f2+       0.0000    0.0000    0.0000    0.0001   -0.0000    0.0000    0.0006    0.0032   -0.0000    0.0040
      128 W      5f2+      -0.0000   -0.0000   -0.0000   -0.0001    0.0000   -0.0000   -0.0004   -0.0024    0.0000   -0.0030
      129 W      6f2+       0.0000    0.0000    0.0000    0.0001   -0.0000    0.0000    0.0004    0.0025   -0.0000    0.0029
      130 W      7f2+      -0.0000   -0.0000   -0.0000   -0.0001    0.0000   -0.0000   -0.0004   -0.0024    0.0000   -0.0027
      131 W      8f2+       0.0000    0.0000    0.0000    0.0001   -0.0000    0.0000    0.0004    0.0024   -0.0000    0.0026
      132 W      9f2+      -0.0000   -0.0000   -0.0000   -0.0001    0.0000   -0.0000   -0.0003   -0.0020    0.0000   -0.0021
      133 W     10f2+       0.0000    0.0000    0.0000    0.0001   -0.0000    0.0000    0.0003    0.0020   -0.0000    0.0020
      134 W     11f2+      -0.0000   -0.0000   -0.0000   -0.0002    0.0000   -0.0000   -0.0003   -0.0016    0.0000   -0.0017
      135 W      4f3+      -0.0000   -0.0001   -0.0000    0.0000    0.0001   -0.0045   -0.0000    0.0000    0.0034    0.0000
      136 W      5f3+       0.0000    0.0001    0.0000   -0.0000   -0.0001    0.0035    0.0000   -0.0000   -0.0026   -0.0000
      137 W      6f3+      -0.0000   -0.0001   -0.0000    0.0000    0.0001   -0.0036   -0.0000    0.0000    0.0026    0.0000
      138 W      7f3+       0.0000    0.0002    0.0000    0.0000   -0.0001    0.0035    0.0000   -0.0000   -0.0025   -0.0000
      139 W      8f3+      -0.0000   -0.0002   -0.0000   -0.0000    0.0001   -0.0035   -0.0000    0.0000    0.0025    0.0000
      140 W      9f3+       0.0000    0.0002    0.0000    0.0000   -0.0001    0.0030    0.0000   -0.0000   -0.0021   -0.0000
      141 W     10f3+      -0.0000   -0.0002   -0.0000   -0.0000    0.0001   -0.0029   -0.0000    0.0000    0.0021    0.0000
      142 W     11f3+       0.0000    0.0003    0.0000    0.0000   -0.0002    0.0025    0.0000    0.0000   -0.0017    0.0000
      143 W      5g4-      -0.0000   -0.0000   -0.0000    0.0000    0.0000   -0.0000   -0.0003    0.0001   -0.0000    0.0000
      144 W      6g4-       0.0000    0.0000    0.0000   -0.0000    0.0000    0.0000    0.0003   -0.0001    0.0000   -0.0000
      145 W      7g4-      -0.0000   -0.0000   -0.0000    0.0000   -0.0000   -0.0000   -0.0003    0.0001   -0.0000    0.0000
      146 W      8g4-       0.0000    0.0000    0.0000   -0.0000    0.0000    0.0000    0.0002   -0.0000    0.0000   -0.0000
      147 W      5g3-       0.0000   -0.0000    0.0000   -0.0000   -0.0000    0.0000    0.0000    0.0000    0.0000    0.0000
      148 W      6g3-      -0.0000    0.0000   -0.0000    0.0000    0.0000   -0.0000   -0.0000    0.0000   -0.0000   -0.0000
      149 W      7g3-       0.0000   -0.0000    0.0000   -0.0000   -0.0000    0.0000    0.0000   -0.0000    0.0000    0.0000
      150 W      8g3-      -0.0000    0.0000   -0.0000    0.0000    0.0000   -0.0000   -0.0000    0.0000   -0.0000   -0.0000
      151 W      5g2-       0.0000   -0.0000    0.0000   -0.0000   -0.0000   -0.0000    0.0000   -0.0000    0.0000    0.0000
      152 W      6g2-      -0.0000    0.0000   -0.0000    0.0000    0.0000   -0.0000   -0.0000    0.0000   -0.0000   -0.0000
      153 W      7g2-       0.0000   -0.0000    0.0000   -0.0000   -0.0000    0.0000    0.0000   -0.0000    0.0000    0.0000
      154 W      8g2-      -0.0000    0.0000   -0.0000    0.0000    0.0000   -0.0000   -0.0000    0.0000   -0.0000   -0.0000
      155 W      5g1-      -0.0000    0.0000   -0.0000    0.0000    0.0000   -0.0000   -0.0004    0.0001   -0.0000   -0.0001
      156 W      6g1-       0.0000   -0.0000    0.0000   -0.0000   -0.0000    0.0000    0.0004   -0.0001    0.0000    0.0001
      157 W      7g1-      -0.0000    0.0000   -0.0000    0.0000    0.0000   -0.0000   -0.0004    0.0001   -0.0000   -0.0001
      158 W      8g1-       0.0000   -0.0000    0.0000   -0.0000   -0.0000    0.0000    0.0003   -0.0000    0.0000    0.0000
      159 W      5g0        0.0000   -0.0000    0.0000   -0.0000   -0.0000   -0.0000    0.0000   -0.0000   -0.0006   -0.0000
      160 W      6g0       -0.0000    0.0000   -0.0000    0.0000    0.0000    0.0000   -0.0000    0.0000    0.0006    0.0000
      161 W      7g0        0.0000   -0.0000    0.0000   -0.0000   -0.0000   -0.0000    0.0000   -0.0000   -0.0006   -0.0000
      162 W      8g0       -0.0000    0.0000   -0.0000    0.0000    0.0000    0.0000   -0.0000    0.0000    0.0005   -0.0000
      163 W      5g1+       0.0000    0.0000   -0.0000   -0.0000    0.0000    0.0000   -0.0001   -0.0004   -0.0000   -0.0002
      164 W      6g1+      -0.0000   -0.0000    0.0000    0.0000   -0.0000   -0.0000    0.0001    0.0004    0.0000    0.0002
      165 W      7g1+       0.0000    0.0000   -0.0000   -0.0000    0.0000    0.0000   -0.0001   -0.0004   -0.0000   -0.0001
      166 W      8g1+      -0.0000   -0.0000    0.0000    0.0000   -0.0000   -0.0000    0.0000    0.0003    0.0000    0.0001
      167 W      5g2+       0.0000   -0.0000   -0.0000   -0.0000    0.0000   -0.0000   -0.0000   -0.0000    0.0000   -0.0000
      168 W      6g2+      -0.0000    0.0000    0.0000    0.0000   -0.0000    0.0000    0.0000    0.0000   -0.0000    0.0000
      169 W      7g2+       0.0000   -0.0000   -0.0000   -0.0000    0.0000   -0.0000   -0.0000   -0.0000    0.0000   -0.0000
      170 W      8g2+      -0.0000    0.0000    0.0000    0.0000   -0.0000    0.0000    0.0000    0.0000   -0.0000    0.0000
      171 W      5g3+       0.0000    0.0000    0.0000   -0.0000   -0.0000    0.0003   -0.0000   -0.0000   -0.0004   -0.0000
      172 W      6g3+      -0.0000   -0.0000   -0.0000    0.0000    0.0000   -0.0003    0.0000    0.0000    0.0004    0.0000
      173 W      7g3+      -0.0000    0.0000    0.0000   -0.0000   -0.0000    0.0003   -0.0000   -0.0000   -0.0004   -0.0000
      174 W      8g3+       0.0000   -0.0000   -0.0000    0.0000    0.0000   -0.0002    0.0000    0.0000    0.0003    0.0000
      175 W      5g4+       0.0000    0.0000   -0.0000   -0.0000    0.0000    0.0000   -0.0001   -0.0003   -0.0000    0.0000
      176 W      6g4+      -0.0000   -0.0000    0.0000    0.0000   -0.0000   -0.0000    0.0001    0.0003    0.0000   -0.0000
      177 W      7g4+       0.0000    0.0000   -0.0000   -0.0000    0.0000    0.0000   -0.0001   -0.0003   -0.0000    0.0000
      178 W      8g4+      -0.0000   -0.0000    0.0000    0.0000   -0.0000   -0.0000    0.0000    0.0002    0.0000   -0.0000
      179 W      6h5-      -0.0000   -0.0000    0.0000   -0.0000   -0.0000    0.0000    0.0000   -0.0000   -0.0000    0.0000
      180 W      7h5-       0.0000    0.0000   -0.0000    0.0000    0.0000   -0.0000   -0.0000    0.0000    0.0000   -0.0000
      181 W      6h4-       0.0000    0.0000    0.0000   -0.0000    0.0000   -0.0000    0.0000   -0.0000    0.0000   -0.0000
      182 W      7h4-      -0.0000   -0.0000   -0.0000    0.0000   -0.0000    0.0000   -0.0000    0.0000   -0.0000    0.0000
      183 W      6h3-       0.0000   -0.0000   -0.0000    0.0000    0.0000    0.0000   -0.0000    0.0000   -0.0000    0.0000
      184 W      7h3-       0.0000    0.0000    0.0000   -0.0000    0.0000   -0.0000    0.0000   -0.0000    0.0000   -0.0000
      185 W      6h2-      -0.0000   -0.0000    0.0000   -0.0000   -0.0000    0.0000    0.0000   -0.0000   -0.0000    0.0000
      186 W      7h2-       0.0000    0.0000   -0.0000    0.0000    0.0000   -0.0000   -0.0000    0.0000    0.0000   -0.0000
      187 W      6h1-       0.0000    0.0000    0.0000   -0.0000    0.0000   -0.0000    0.0000   -0.0000    0.0000   -0.0000
      188 W      7h1-      -0.0000   -0.0000   -0.0000    0.0000   -0.0000    0.0000   -0.0000    0.0000   -0.0000    0.0000
      189 W      6h0        0.0000   -0.0000    0.0000   -0.0000   -0.0000   -0.0000    0.0000   -0.0000   -0.0001   -0.0000
      190 W      7h0       -0.0000    0.0000   -0.0000    0.0000    0.0000    0.0000   -0.0000    0.0000    0.0001    0.0000
      191 W      6h1+      -0.0000   -0.0000    0.0000    0.0000   -0.0000   -0.0000    0.0000    0.0000   -0.0000   -0.0000
      192 W      7h1+       0.0000    0.0000   -0.0000   -0.0000    0.0000    0.0000   -0.0000   -0.0000    0.0000    0.0000
      193 W      6h2+      -0.0000   -0.0000   -0.0000   -0.0000    0.0000    0.0000   -0.0000   -0.0000   -0.0000   -0.0000
      194 W      7h2+       0.0000   -0.0000    0.0000    0.0000   -0.0000   -0.0000    0.0000    0.0000    0.0000    0.0000
      195 W      6h3+       0.0000   -0.0000   -0.0000    0.0000    0.0000   -0.0000   -0.0000    0.0000    0.0000   -0.0000
      196 W      7h3+      -0.0000    0.0000    0.0000   -0.0000   -0.0000    0.0000    0.0000   -0.0000   -0.0000    0.0000
      197 W      6h4+       0.0000   -0.0000    0.0000    0.0000   -0.0000   -0.0000    0.0000    0.0000    0.0000   -0.0000
      198 W      7h4+      -0.0000    0.0000   -0.0000   -0.0000    0.0000    0.0000   -0.0000   -0.0000   -0.0000    0.0000
      199 W      6h5+       0.0000   -0.0000   -0.0000   -0.0000    0.0000   -0.0000   -0.0000   -0.0000   -0.0000   -0.0000
      200 W      7h5+      -0.0000    0.0000    0.0000    0.0000   -0.0000    0.0000    0.0000    0.0000   -0.0000    0.0000

          Orbital           11        12        13        14        15        16        17        18        19        20    
          Energy          -64.4376  -63.0840  -62.8811  -62.8811  -22.1275  -16.7468  -16.7468  -16.5894   -9.5872   -9.5872
          Occ. No.          2.0000    2.0000    2.0000    2.0000    2.0000    2.0000    2.0000    2.0000    2.0000    2.0000

        1 W      1s        -0.0000    0.0000    0.0000   -0.0000    0.0000    0.0000    0.0000   -0.0000   -0.0000    0.0000
        2 W      2s         0.0000    0.0005    0.0000   -0.0000   -0.0003   -0.0000   -0.0000    0.0002   -0.0000   -0.0000
        3 W      3s        -0.0000    0.0155    0.0000   -0.0000   -0.0134   -0.0000   -0.0000    0.0018   -0.0000    0.0000
        4 W      4s        -0.0000    0.0028    0.0000   -0.0000    0.9980   -0.0000   -0.0000   -0.0414    0.0000    0.0000
        5 W      5s         0.0000   -0.0006   -0.0000    0.0000    0.0286    0.0000   -0.0000   -0.0064   -0.0000   -0.0000
        6 W      6s        -0.0000    0.0001    0.0000   -0.0000   -0.0067   -0.0000    0.0000    0.0014    0.0000    0.0000
        7 W      7s         0.0000   -0.0002   -0.0000    0.0000    0.0073   -0.0000   -0.0000   -0.0014   -0.0000   -0.0000
        8 W      8s        -0.0000    0.0004    0.0000   -0.0000   -0.0168    0.0000    0.0000    0.0032    0.0000    0.0000
        9 W      9s         0.0000   -0.0005   -0.0000    0.0000    0.0181   -0.0000   -0.0000   -0.0032   -0.0000   -0.0000
       10 W     10s        -0.0000    0.0004    0.0000   -0.0000   -0.0157    0.0000    0.0000    0.0026    0.0000    0.0000
       11 W     11s         0.0000   -0.0002   -0.0000    0.0000    0.0132    0.0000   -0.0000   -0.0017    0.0000    0.0000
       12 W      2px        0.0001   -0.0000   -0.0001   -0.0016   -0.0000   -0.0001   -0.0002    0.0000    0.0000   -0.0000
       13 W      3px        0.0003   -0.0000   -0.0050   -0.0807   -0.0000   -0.0090   -0.0121   -0.0000   -0.0000    0.0000
       14 W      4px       -0.0000   -0.0000   -0.0005   -0.0076    0.0000    0.5957    0.8003    0.0000   -0.0032    0.0032
       15 W      5px       -0.0000    0.0000    0.0001    0.0015   -0.0000    0.0180    0.0242    0.0000   -0.0006    0.0006
       16 W      6px        0.0000   -0.0000   -0.0000   -0.0006    0.0000   -0.0063   -0.0085   -0.0000    0.0001   -0.0001
       17 W      7px       -0.0000    0.0000    0.0001    0.0016   -0.0000    0.0152    0.0205    0.0000   -0.0003    0.0003
       18 W      8px        0.0000   -0.0000   -0.0001   -0.0014    0.0000   -0.0118   -0.0158   -0.0000    0.0002   -0.0002
       19 W      9px       -0.0000    0.0000    0.0001    0.0011   -0.0000    0.0089    0.0119    0.0000   -0.0001    0.0001
       20 W     10px        0.0000   -0.0000   -0.0000   -0.0007    0.0000   -0.0057   -0.0076   -0.0000    0.0000   -0.0000
       21 W     11px       -0.0001    0.0000   -0.0000   -0.0007    0.0000    0.0034    0.0046    0.0000   -0.0000    0.0000
       22 W      2py       -0.0002    0.0000   -0.0016    0.0001    0.0000   -0.0002    0.0001   -0.0000    0.0000    0.0000
       23 W      3py       -0.0006    0.0000   -0.0807    0.0050   -0.0000   -0.0121    0.0090   -0.0000   -0.0000   -0.0000
       24 W      4py        0.0000    0.0000   -0.0076    0.0005    0.0000    0.8003   -0.5957    0.0000   -0.0032   -0.0032
       25 W      5py        0.0000   -0.0000    0.0015   -0.0001    0.0000    0.0242   -0.0180    0.0000   -0.0006   -0.0006
       26 W      6py       -0.0000    0.0000   -0.0006    0.0000   -0.0000   -0.0085    0.0063   -0.0000    0.0001    0.0001
       27 W      7py        0.0000   -0.0000    0.0016   -0.0001    0.0000    0.0205   -0.0152    0.0000   -0.0003   -0.0003
       28 W      8py       -0.0000    0.0000   -0.0014    0.0001   -0.0000   -0.0158    0.0118   -0.0000    0.0002    0.0002
       29 W      9py        0.0001   -0.0000    0.0011   -0.0001    0.0000    0.0119   -0.0089    0.0000   -0.0001   -0.0001
       30 W     10py       -0.0001    0.0000   -0.0007    0.0000   -0.0000   -0.0076    0.0057   -0.0000    0.0000    0.0000
       31 W     11py        0.0002    0.0000   -0.0007    0.0000    0.0000    0.0046   -0.0034    0.0000   -0.0000   -0.0000
       32 W      2pz        0.0000    0.0004    0.0000    0.0000    0.0001    0.0000    0.0000   -0.0004    0.0000   -0.0000
       33 W      3pz        0.0000    0.0444    0.0000    0.0000    0.0008    0.0000   -0.0000   -0.0171   -0.0000   -0.0000
       34 W      4pz        0.0000    0.0043    0.0000    0.0000    0.0420   -0.0000    0.0000    0.9973   -0.0000    0.0000
       35 W      5pz        0.0000   -0.0008   -0.0000   -0.0000   -0.0022   -0.0000    0.0000    0.0347   -0.0000    0.0000
       36 W      6pz       -0.0000    0.0003    0.0000    0.0000    0.0008    0.0000   -0.0000   -0.0122   -0.0000   -0.0000
       37 W      7pz        0.0000   -0.0008   -0.0000   -0.0000   -0.0019   -0.0000    0.0000    0.0296    0.0000    0.0000
       38 W      8pz       -0.0000    0.0007    0.0000    0.0000    0.0015    0.0000   -0.0000   -0.0229    0.0000   -0.0000
       39 W      9pz        0.0000   -0.0005   -0.0000   -0.0000   -0.0011   -0.0000    0.0000    0.0172   -0.0000    0.0000
       40 W     10pz       -0.0000    0.0002    0.0000    0.0000    0.0006    0.0000   -0.0000   -0.0109    0.0000   -0.0000
       41 W     11pz        0.0000    0.0010    0.0000   -0.0000   -0.0001   -0.0000    0.0000    0.0062    0.0000    0.0000
       42 W      3d2-      -0.7680   -0.0000    0.5456   -0.0337   -0.0000    0.0024   -0.0018    0.0000    0.0091    0.0091
       43 W      4d2-      -0.0121   -0.0000    0.0095   -0.0006    0.0000    0.0157   -0.0117    0.0000   -0.5963   -0.5959
       44 W      5d2-       0.0021    0.0000   -0.0016    0.0001    0.0000   -0.0013    0.0010   -0.0000   -0.0181   -0.0181
       45 W      6d2-      -0.0029   -0.0000    0.0021   -0.0001   -0.0000    0.0016   -0.0012    0.0000    0.0201    0.0201
       46 W      7d2-       0.0036    0.0000   -0.0026    0.0002    0.0000   -0.0017    0.0013   -0.0000   -0.0196   -0.0196
       47 W      8d2-      -0.0039   -0.0000    0.0026   -0.0002   -0.0000    0.0014   -0.0010    0.0000    0.0147    0.0147
       48 W      9d2-       0.0035    0.0000   -0.0021    0.0001    0.0000   -0.0009    0.0007   -0.0000   -0.0101   -0.0101
       49 W     10d2-      -0.0031   -0.0000    0.0013   -0.0001   -0.0000    0.0005   -0.0004    0.0000    0.0069    0.0069
       50 W     11d2-       0.0009   -0.0000    0.0016   -0.0001    0.0000    0.0004   -0.0003    0.0000   -0.0032   -0.0032
       51 W      3d1-       0.5040   -0.0000    0.8314   -0.0514    0.0000    0.0035   -0.0026    0.0000   -0.0058   -0.0058
       52 W      4d1-       0.0081   -0.0000    0.0147   -0.0009   -0.0000    0.0317   -0.0236    0.0000    0.3773    0.3771
       53 W      5d1-      -0.0014    0.0000   -0.0025    0.0002   -0.0000   -0.0023    0.0017   -0.0000    0.0119    0.0119
       54 W      6d1-       0.0019   -0.0000    0.0033   -0.0002    0.0000    0.0028   -0.0021    0.0000   -0.0132   -0.0132
       55 W      7d1-      -0.0024    0.0000   -0.0041    0.0003   -0.0000   -0.0029    0.0022   -0.0000    0.0129    0.0129
       56 W      8d1-       0.0026   -0.0000    0.0041   -0.0003    0.0000    0.0024   -0.0018    0.0000   -0.0097   -0.0097
       57 W      9d1-      -0.0024    0.0000   -0.0033    0.0002   -0.0000   -0.0015    0.0011   -0.0000    0.0066    0.0066
       58 W     10d1-       0.0022   -0.0000    0.0022   -0.0001    0.0000    0.0007   -0.0006    0.0000   -0.0045   -0.0045
       59 W     11d1-      -0.0008   -0.0000    0.0019   -0.0001   -0.0000    0.0007   -0.0005    0.0000    0.0021    0.0021
       60 W      3d0       -0.0000    0.9986    0.0000   -0.0000   -0.0027    0.0000   -0.0000   -0.0032   -0.0000   -0.0000
       61 W      4d0        0.0000    0.0172    0.0000   -0.0000   -0.0069   -0.0000   -0.0000   -0.0081    0.0000    0.0000
       62 W      5d0       -0.0000   -0.0030   -0.0000    0.0000    0.0010   -0.0000    0.0000    0.0011    0.0000    0.0000
       63 W      6d0        0.0000    0.0040    0.0000   -0.0000   -0.0013    0.0000   -0.0000   -0.0014   -0.0000   -0.0000
       64 W      7d0       -0.0000   -0.0050   -0.0000    0.0000    0.0016   -0.0000    0.0000    0.0016    0.0000    0.0000
       65 W      8d0        0.0000    0.0051    0.0000   -0.0000   -0.0015    0.0000   -0.0000   -0.0014   -0.0000   -0.0000
       66 W      9d0       -0.0000   -0.0042   -0.0000    0.0000    0.0012   -0.0000    0.0000    0.0009    0.0000    0.0000
       67 W     10d0        0.0000    0.0030    0.0000   -0.0000   -0.0009    0.0000   -0.0000   -0.0006   -0.0000   -0.0000
       68 W     11d0       -0.0000    0.0016    0.0000   -0.0000   -0.0002   -0.0000   -0.0000   -0.0004    0.0000    0.0000
       69 W      3d1+      -0.2165    0.0000    0.0514    0.8314    0.0000    0.0026    0.0035   -0.0000   -0.0058    0.0058
       70 W      4d1+      -0.0035    0.0000    0.0009    0.0147   -0.0000    0.0236    0.0317    0.0000    0.3771   -0.3773
       71 W      5d1+       0.0006   -0.0000   -0.0002   -0.0025    0.0000   -0.0017   -0.0023   -0.0000    0.0119   -0.0119
       72 W      6d1+      -0.0008    0.0000    0.0002    0.0033   -0.0000    0.0021    0.0028    0.0000   -0.0132    0.0132
       73 W      7d1+       0.0011   -0.0000   -0.0003   -0.0041    0.0000   -0.0022   -0.0029   -0.0000    0.0129   -0.0129
       74 W      8d1+      -0.0011    0.0000    0.0003    0.0041   -0.0000    0.0018    0.0024    0.0000   -0.0097    0.0097
       75 W      9d1+       0.0010   -0.0000   -0.0002   -0.0033    0.0000   -0.0011   -0.0015   -0.0000    0.0066   -0.0066
       76 W     10d1+      -0.0009    0.0000    0.0001    0.0022   -0.0000    0.0006    0.0007   -0.0000   -0.0045    0.0045
       77 W     11d1+       0.0004    0.0000    0.0001    0.0019   -0.0000    0.0005    0.0007    0.0000    0.0021   -0.0021
       78 W      3d2+      -0.3299   -0.0000   -0.0337   -0.5456   -0.0000   -0.0018   -0.0024    0.0000   -0.0091    0.0091
       79 W      4d2+      -0.0052   -0.0000   -0.0006   -0.0095   -0.0000   -0.0117   -0.0157    0.0000    0.5959   -0.5963
       80 W      5d2+       0.0009    0.0000    0.0001    0.0016    0.0000    0.0010    0.0013   -0.0000    0.0181   -0.0181
       81 W      6d2+      -0.0012   -0.0000   -0.0001   -0.0021   -0.0000   -0.0012   -0.0016    0.0000   -0.0201    0.0201
       82 W      7d2+       0.0016    0.0000    0.0002    0.0026    0.0000    0.0013    0.0017   -0.0000    0.0196   -0.0196
       83 W      8d2+      -0.0017   -0.0000   -0.0002   -0.0026   -0.0000   -0.0010   -0.0014    0.0000   -0.0147    0.0147
       84 W      9d2+       0.0015    0.0000    0.0001    0.0021    0.0000    0.0007    0.0009   -0.0000    0.0101   -0.0101
       85 W     10d2+      -0.0013   -0.0000   -0.0001   -0.0013   -0.0000   -0.0004   -0.0005    0.0000   -0.0069    0.0069
       86 W     11d2+       0.0004    0.0000   -0.0001   -0.0016   -0.0000   -0.0003   -0.0004    0.0000    0.0032   -0.0032
       87 W      4f3-      -0.0000    0.0000    0.0000   -0.0000    0.0000    0.0000    0.0000   -0.0000   -0.0000   -0.0000
       88 W      5f3-       0.0000   -0.0000   -0.0000    0.0000   -0.0000   -0.0000   -0.0000   -0.0000    0.0000    0.0000
       89 W      6f3-      -0.0000    0.0000    0.0000   -0.0000   -0.0000   -0.0000   -0.0000    0.0000   -0.0000   -0.0000
       90 W      7f3-       0.0000    0.0000   -0.0000    0.0000    0.0000    0.0000    0.0000   -0.0000   -0.0000    0.0000
       91 W      8f3-      -0.0000   -0.0000    0.0000   -0.0000   -0.0000   -0.0000   -0.0000   -0.0000    0.0000    0.0000
       92 W      9f3-       0.0000    0.0000   -0.0000    0.0000   -0.0000   -0.0000    0.0000   -0.0000   -0.0000   -0.0000
       93 W     10f3-      -0.0000   -0.0000    0.0000   -0.0000    0.0000    0.0000    0.0000    0.0000    0.0000    0.0000
       94 W     11f3-      -0.0000    0.0000   -0.0000    0.0000   -0.0000   -0.0000    0.0000   -0.0000   -0.0000   -0.0000
       95 W      4f2-      -0.0040   -0.0000    0.0098   -0.0006    0.0000   -0.0004    0.0003    0.0000   -0.0098   -0.0098
       96 W      5f2-       0.0030    0.0000   -0.0073    0.0005   -0.0000   -0.0004    0.0003   -0.0000    0.0023    0.0023
       97 W      6f2-      -0.0029   -0.0000    0.0072   -0.0004    0.0000    0.0006   -0.0004   -0.0000   -0.0007   -0.0007
       98 W      7f2-       0.0027    0.0000   -0.0068    0.0004    0.0000   -0.0007    0.0005    0.0000   -0.0004   -0.0004
       99 W      8f2-      -0.0026   -0.0000    0.0065   -0.0004   -0.0000    0.0007   -0.0006   -0.0000    0.0007    0.0007
      100 W      9f2-       0.0021    0.0000   -0.0055    0.0003    0.0000   -0.0008    0.0006   -0.0000   -0.0008   -0.0008
      101 W     10f2-      -0.0020   -0.0000    0.0051   -0.0003   -0.0000    0.0007   -0.0006    0.0000    0.0007    0.0007
      102 W     11f2-       0.0017    0.0000   -0.0043    0.0003   -0.0000   -0.0009    0.0007   -0.0000   -0.0009   -0.0009
      103 W      4f1-       0.0017   -0.0000    0.0019   -0.0001   -0.0000    0.0002   -0.0002   -0.0000    0.0053    0.0053
      104 W      5f1-      -0.0012    0.0000   -0.0014    0.0001    0.0000    0.0001   -0.0001    0.0000   -0.0011   -0.0011
      105 W      6f1-       0.0012   -0.0000    0.0014   -0.0001   -0.0000   -0.0001    0.0001   -0.0000    0.0003    0.0003
      106 W      7f1-      -0.0011    0.0000   -0.0013    0.0001   -0.0000   -0.0000    0.0000   -0.0000    0.0002    0.0002
      107 W      8f1-       0.0010   -0.0000    0.0012   -0.0001    0.0000    0.0003   -0.0002    0.0000   -0.0004   -0.0004
      108 W      9f1-      -0.0009    0.0000   -0.0010    0.0001   -0.0000   -0.0004    0.0003   -0.0000    0.0004    0.0004
      109 W     10f1-       0.0008   -0.0000    0.0009   -0.0001    0.0000    0.0005   -0.0003    0.0000   -0.0003   -0.0003
      110 W     11f1-      -0.0007    0.0000   -0.0009    0.0001    0.0000   -0.0006    0.0004   -0.0000    0.0004    0.0004
      111 W      4f0        0.0000   -0.0041   -0.0000    0.0000   -0.0047    0.0000    0.0000   -0.0005   -0.0000   -0.0000
      112 W      5f0       -0.0000    0.0031    0.0000   -0.0000    0.0014   -0.0000   -0.0000   -0.0001    0.0000    0.0000
      113 W      6f0        0.0000   -0.0031   -0.0000    0.0000   -0.0002    0.0000    0.0000    0.0000   -0.0000   -0.0000
      114 W      7f0       -0.0000    0.0030    0.0000   -0.0000   -0.0010    0.0000   -0.0000   -0.0001   -0.0000    0.0000
      115 W      8f0        0.0000   -0.0029   -0.0000    0.0000    0.0019   -0.0000    0.0000    0.0003    0.0000   -0.0000
      116 W      9f0       -0.0000    0.0024    0.0000   -0.0000   -0.0023    0.0000   -0.0000   -0.0006   -0.0000    0.0000
      117 W     10f0        0.0000   -0.0023   -0.0000    0.0000    0.0024   -0.0000   -0.0000    0.0007    0.0000    0.0000
      118 W     11f0       -0.0000    0.0019    0.0000   -0.0000   -0.0029    0.0000   -0.0000   -0.0009   -0.0000   -0.0000
      119 W      4f1+      -0.0007    0.0000    0.0001    0.0019    0.0000    0.0002    0.0002   -0.0000    0.0053   -0.0053
      120 W      5f1+       0.0005   -0.0000   -0.0001   -0.0014   -0.0000    0.0001    0.0001    0.0000   -0.0011    0.0011
      121 W      6f1+      -0.0005    0.0000    0.0001    0.0014    0.0000   -0.0001   -0.0001   -0.0000    0.0003   -0.0003
      122 W      7f1+       0.0005   -0.0000   -0.0001   -0.0013   -0.0000   -0.0000   -0.0000    0.0000    0.0002   -0.0002
      123 W      8f1+      -0.0004    0.0000    0.0001    0.0012    0.0000    0.0002    0.0003   -0.0000   -0.0004    0.0004
      124 W      9f1+       0.0004   -0.0000   -0.0001   -0.0010   -0.0000   -0.0003   -0.0004    0.0000    0.0004   -0.0004
      125 W     10f1+      -0.0003    0.0000    0.0001    0.0009    0.0000    0.0003    0.0005   -0.0000   -0.0003    0.0003
      126 W     11f1+       0.0003    0.0000   -0.0001   -0.0009   -0.0000   -0.0004   -0.0006    0.0000    0.0004   -0.0004
      127 W      4f2+      -0.0017   -0.0000   -0.0006   -0.0098   -0.0000    0.0003    0.0004    0.0000    0.0098   -0.0098
      128 W      5f2+       0.0013    0.0000    0.0005    0.0073    0.0000    0.0003    0.0004   -0.0000   -0.0023    0.0023
      129 W      6f2+      -0.0013   -0.0000   -0.0004   -0.0072   -0.0000   -0.0004   -0.0006    0.0000    0.0007   -0.0007
      130 W      7f2+       0.0012    0.0000    0.0004    0.0068    0.0000    0.0005    0.0007   -0.0000    0.0004   -0.0004
      131 W      8f2+      -0.0011   -0.0000   -0.0004   -0.0065   -0.0000   -0.0006   -0.0007    0.0000   -0.0007    0.0007
      132 W      9f2+       0.0009    0.0000    0.0003    0.0055    0.0000    0.0006    0.0008   -0.0000    0.0008   -0.0008
      133 W     10f2+      -0.0009   -0.0000   -0.0003   -0.0051   -0.0000   -0.0006   -0.0007    0.0000   -0.0007    0.0007
      134 W     11f2+       0.0007    0.0000    0.0003    0.0043    0.0000    0.0007    0.0009   -0.0000    0.0009   -0.0009
      135 W      4f3+      -0.0000    0.0036    0.0000   -0.0000   -0.0031   -0.0000    0.0000    0.0009    0.0000   -0.0000
      136 W      5f3+       0.0000   -0.0026   -0.0000    0.0000    0.0010    0.0000   -0.0000    0.0002   -0.0000    0.0000
      137 W      6f3+      -0.0000    0.0026    0.0000   -0.0000   -0.0002    0.0000   -0.0000   -0.0005    0.0000   -0.0000
      138 W      7f3+       0.0000   -0.0025   -0.0000    0.0000   -0.0006   -0.0000    0.0000    0.0007   -0.0000   -0.0000
      139 W      8f3+      -0.0000    0.0023    0.0000   -0.0000    0.0012    0.0000   -0.0000   -0.0008   -0.0000    0.0000
      140 W      9f3+       0.0000   -0.0020   -0.0000    0.0000   -0.0015   -0.0000   -0.0000    0.0009    0.0000   -0.0000
      141 W     10f3+      -0.0000    0.0018    0.0000    0.0000    0.0015   -0.0000    0.0000   -0.0009   -0.0000    0.0000
      142 W     11f3+      -0.0000   -0.0015   -0.0000   -0.0000   -0.0019   -0.0000    0.0000    0.0011    0.0000    0.0000
      143 W      5g4-       0.0000   -0.0000    0.0004   -0.0000   -0.0000   -0.0009    0.0006   -0.0000   -0.0002   -0.0002
      144 W      6g4-      -0.0000    0.0000   -0.0003    0.0000   -0.0000    0.0007   -0.0005    0.0000    0.0000    0.0000
      145 W      7g4-       0.0000   -0.0000    0.0003   -0.0000    0.0000   -0.0005    0.0004   -0.0000    0.0000    0.0000
      146 W      8g4-      -0.0000    0.0000   -0.0002    0.0000   -0.0000    0.0003   -0.0002    0.0000   -0.0001   -0.0001
      147 W      5g3-       0.0000   -0.0000   -0.0000    0.0000    0.0000    0.0000    0.0000    0.0000    0.0000    0.0000
      148 W      6g3-      -0.0000   -0.0000    0.0000   -0.0000   -0.0000   -0.0000   -0.0000   -0.0000   -0.0000    0.0000
      149 W      7g3-       0.0000    0.0000   -0.0000    0.0000    0.0000    0.0000    0.0000    0.0000    0.0000   -0.0000
      150 W      8g3-      -0.0000   -0.0000    0.0000   -0.0000   -0.0000   -0.0000   -0.0000   -0.0000    0.0000   -0.0000
      151 W      5g2-       0.0000    0.0000   -0.0002    0.0000   -0.0000   -0.0001    0.0001   -0.0000    0.0002    0.0002
      152 W      6g2-      -0.0000   -0.0000    0.0002   -0.0000    0.0000    0.0000   -0.0000   -0.0000   -0.0001   -0.0001
      153 W      7g2-       0.0000    0.0000   -0.0002    0.0000    0.0000   -0.0000    0.0000    0.0000    0.0001    0.0001
      154 W      8g2-      -0.0000   -0.0000    0.0002   -0.0000   -0.0000    0.0000   -0.0000   -0.0000   -0.0001   -0.0001
      155 W      5g1-      -0.0002   -0.0000    0.0004   -0.0000    0.0000   -0.0010    0.0008   -0.0000    0.0001    0.0001
      156 W      6g1-       0.0002    0.0000   -0.0003    0.0000   -0.0000    0.0008   -0.0006    0.0000    0.0000    0.0000
      157 W      7g1-      -0.0001   -0.0000    0.0002   -0.0000   -0.0000   -0.0007    0.0005   -0.0000   -0.0002   -0.0002
      158 W      8g1-       0.0001    0.0000   -0.0001    0.0000    0.0000    0.0004   -0.0003    0.0000    0.0002    0.0002
      159 W      5g0        0.0000   -0.0009   -0.0000    0.0000    0.0000    0.0000   -0.0000   -0.0019   -0.0000   -0.0000
      160 W      6g0       -0.0000    0.0007    0.0000   -0.0000   -0.0001   -0.0000    0.0000    0.0015    0.0000    0.0000
      161 W      7g0        0.0000   -0.0006   -0.0000    0.0000    0.0001    0.0000   -0.0000   -0.0012    0.0000    0.0000
      162 W      8g0       -0.0000    0.0004    0.0000   -0.0000   -0.0000   -0.0000    0.0000    0.0007   -0.0000   -0.0000
      163 W      5g1+       0.0001   -0.0000    0.0000    0.0004    0.0000   -0.0008   -0.0010   -0.0000    0.0001   -0.0001
      164 W      6g1+      -0.0001    0.0000   -0.0000   -0.0003   -0.0000    0.0006    0.0008    0.0000    0.0000   -0.0000
      165 W      7g1+       0.0001   -0.0000    0.0000    0.0002    0.0000   -0.0005   -0.0007   -0.0000   -0.0002    0.0002
      166 W      8g1+      -0.0000    0.0000   -0.0000   -0.0001   -0.0000    0.0003    0.0004    0.0000    0.0002   -0.0002
      167 W      5g2+       0.0000    0.0000    0.0000    0.0002   -0.0000    0.0001    0.0001    0.0000   -0.0002    0.0002
      168 W      6g2+      -0.0000   -0.0000   -0.0000   -0.0002    0.0000   -0.0000   -0.0000   -0.0000    0.0001   -0.0001
      169 W      7g2+       0.0000    0.0000    0.0000    0.0002    0.0000    0.0000    0.0000    0.0000   -0.0001    0.0001
      170 W      8g2+      -0.0000   -0.0000   -0.0000   -0.0002   -0.0000   -0.0000   -0.0000   -0.0000    0.0001   -0.0001
      171 W      5g3+      -0.0000   -0.0003   -0.0000    0.0000    0.0005   -0.0000   -0.0000   -0.0010   -0.0000   -0.0000
      172 W      6g3+       0.0000    0.0002    0.0000   -0.0000   -0.0004    0.0000   -0.0000    0.0008    0.0000    0.0000
      173 W      7g3+      -0.0000   -0.0002   -0.0000    0.0000    0.0003   -0.0000    0.0000   -0.0006   -0.0000   -0.0000
      174 W      8g3+       0.0000    0.0001    0.0000   -0.0000   -0.0002    0.0000    0.0000    0.0004   -0.0000   -0.0000
      175 W      5g4+      -0.0000   -0.0000    0.0000    0.0004    0.0000   -0.0006   -0.0009   -0.0000   -0.0002    0.0002
      176 W      6g4+       0.0000    0.0000   -0.0000   -0.0003   -0.0000    0.0005    0.0007    0.0000    0.0000   -0.0000
      177 W      7g4+      -0.0000   -0.0000    0.0000    0.0003    0.0000   -0.0004   -0.0005   -0.0000    0.0000   -0.0000
      178 W      8g4+       0.0000    0.0000   -0.0000   -0.0002   -0.0000    0.0002    0.0003    0.0000   -0.0001    0.0001
      179 W      6h5-       0.0000    0.0000   -0.0000    0.0000   -0.0000    0.0001   -0.0001   -0.0000    0.0002    0.0002
      180 W      7h5-      -0.0000   -0.0000    0.0000   -0.0000   -0.0000   -0.0001    0.0001    0.0000   -0.0002   -0.0002
      181 W      6h4-      -0.0000    0.0000   -0.0000    0.0000    0.0000    0.0001   -0.0000    0.0000   -0.0001   -0.0001
      182 W      7h4-       0.0000   -0.0000    0.0000   -0.0000    0.0000   -0.0000    0.0000   -0.0000    0.0001    0.0001
      183 W      6h3-       0.0000    0.0000    0.0000    0.0000   -0.0000   -0.0000   -0.0000   -0.0000   -0.0000    0.0000
      184 W      7h3-      -0.0000   -0.0000   -0.0000   -0.0000   -0.0000    0.0000    0.0000    0.0000   -0.0000    0.0000
      185 W      6h2-       0.0000    0.0000   -0.0000    0.0000   -0.0000    0.0002   -0.0001   -0.0000    0.0002    0.0002
      186 W      7h2-      -0.0000   -0.0000    0.0000   -0.0000   -0.0000   -0.0001    0.0001    0.0000   -0.0002   -0.0002
      187 W      6h1-      -0.0000    0.0000   -0.0000    0.0000    0.0000    0.0004   -0.0003    0.0000   -0.0002   -0.0002
      188 W      7h1-       0.0000   -0.0000    0.0001   -0.0000    0.0000   -0.0003    0.0002   -0.0000    0.0002    0.0002
      189 W      6h0        0.0000   -0.0001   -0.0000    0.0000   -0.0000    0.0000   -0.0000   -0.0007   -0.0000   -0.0000
      190 W      7h0       -0.0000    0.0001    0.0000   -0.0000    0.0000   -0.0000    0.0000    0.0003    0.0000    0.0000
      191 W      6h1+       0.0000   -0.0000   -0.0000   -0.0000   -0.0000    0.0003    0.0004   -0.0000   -0.0002    0.0002
      192 W      7h1+      -0.0000    0.0000    0.0000    0.0001    0.0000   -0.0002   -0.0003    0.0000    0.0002   -0.0002
      193 W      6h2+       0.0000    0.0000    0.0000    0.0000    0.0000   -0.0001   -0.0002   -0.0000   -0.0002    0.0002
      194 W      7h2+      -0.0000   -0.0000   -0.0000   -0.0000   -0.0000    0.0001    0.0001    0.0000    0.0002   -0.0002
      195 W      6h3+      -0.0000   -0.0000   -0.0000    0.0000   -0.0000    0.0000   -0.0000   -0.0003    0.0000    0.0000
      196 W      7h3+       0.0000    0.0000    0.0000   -0.0000    0.0000   -0.0000    0.0000    0.0002    0.0000    0.0000
      197 W      6h4+       0.0000    0.0000   -0.0000   -0.0000   -0.0000    0.0000    0.0001    0.0000   -0.0001    0.0001
      198 W      7h4+      -0.0000   -0.0000    0.0000    0.0000    0.0000   -0.0000   -0.0000   -0.0000    0.0001   -0.0001
      199 W      6h5+       0.0000    0.0000    0.0000    0.0000   -0.0000   -0.0001   -0.0001   -0.0000   -0.0002    0.0002
      200 W      7h5+      -0.0000   -0.0000   -0.0000   -0.0000   -0.0000    0.0001    0.0001    0.0000    0.0002   -0.0002

          Orbital           21        22        23        24        25        26        27        28        29        30    
          Energy           -9.3771   -9.3771   -9.3550   -3.8761   -2.4232   -2.4232   -2.4132   -1.6013   -1.5667   -1.5391
          Occ. No.          2.0000    2.0000    2.0000    2.0000    2.0000    2.0000    2.0000    2.0000    2.0000    2.0000

        1 W      1s         0.0000    0.0000   -0.0000   -0.0000    0.0000    0.0000    0.0000   -0.0000   -0.0000   -0.0000
        2 W      2s         0.0000    0.0000   -0.0001    0.0001   -0.0000   -0.0000   -0.0001    0.0000    0.0000    0.0000
        3 W      3s         0.0000    0.0000   -0.0004    0.0038   -0.0000   -0.0000   -0.0004    0.0000    0.0009    0.0000
        4 W      4s        -0.0000   -0.0000    0.0059   -0.0269    0.0000    0.0000    0.0041    0.0000    0.0008    0.0000
        5 W      5s        -0.0000   -0.0000    0.0089    0.9972   -0.0000   -0.0000   -0.0371    0.0000   -0.0021   -0.0000
        6 W      6s         0.0000    0.0000   -0.0016    0.0260   -0.0000   -0.0000   -0.0087   -0.0000   -0.0025   -0.0000
        7 W      7s        -0.0000   -0.0000    0.0017   -0.0191    0.0000    0.0000    0.0067    0.0000    0.0017    0.0000
        8 W      8s         0.0000    0.0000   -0.0034    0.0351   -0.0000   -0.0000   -0.0088   -0.0000   -0.0019   -0.0000
        9 W      9s        -0.0000   -0.0000    0.0030   -0.0246    0.0000    0.0000    0.0036    0.0000    0.0008   -0.0000
       10 W     10s         0.0000    0.0000   -0.0020    0.0092   -0.0000   -0.0000   -0.0006    0.0000   -0.0001    0.0000
       11 W     11s        -0.0000   -0.0000    0.0012   -0.0077    0.0000    0.0000    0.0010    0.0000    0.0004    0.0000
       12 W      2px        0.0003   -0.0002   -0.0000    0.0000   -0.0001    0.0001    0.0000   -0.0000    0.0000    0.0000
       13 W      3px        0.0013   -0.0010   -0.0000    0.0000   -0.0026    0.0031    0.0000   -0.0000    0.0000    0.0005
       14 W      4px       -0.0331    0.0259    0.0000    0.0000    0.0184   -0.0218   -0.0000   -0.0000   -0.0000    0.0001
       15 W      5px       -0.0131    0.0103    0.0000    0.0000   -0.6431    0.7623    0.0000    0.0000    0.0000   -0.0092
       16 W      6px        0.0039   -0.0030   -0.0000   -0.0000   -0.0159    0.0188    0.0000    0.0000    0.0000   -0.0027
       17 W      7px       -0.0081    0.0064    0.0000    0.0000    0.0295   -0.0349   -0.0000   -0.0000   -0.0000    0.0034
       18 W      8px        0.0053   -0.0042   -0.0000   -0.0000   -0.0124    0.0147    0.0000   -0.0000   -0.0000   -0.0006
       19 W      9px       -0.0033    0.0026    0.0000   -0.0000    0.0024   -0.0029   -0.0000   -0.0000   -0.0000   -0.0001
       20 W     10px        0.0018   -0.0014   -0.0000   -0.0000   -0.0017    0.0020    0.0000    0.0000    0.0000   -0.0002
       21 W     11px       -0.0010    0.0008    0.0000   -0.0000    0.0019   -0.0022   -0.0000    0.0000   -0.0000    0.0001
       22 W      2py        0.0002    0.0003    0.0000    0.0000    0.0001    0.0001   -0.0000    0.0000    0.0000    0.0000
       23 W      3py        0.0010    0.0013    0.0000    0.0000    0.0031    0.0026   -0.0000    0.0000    0.0000    0.0006
       24 W      4py       -0.0259   -0.0331   -0.0000   -0.0000   -0.0218   -0.0184    0.0000   -0.0000    0.0000    0.0001
       25 W      5py       -0.0103   -0.0131   -0.0000    0.0000    0.7623    0.6431   -0.0001    0.0000   -0.0000   -0.0110
       26 W      6py        0.0030    0.0039    0.0000    0.0000    0.0188    0.0159   -0.0000    0.0000   -0.0000   -0.0032
       27 W      7py       -0.0064   -0.0081   -0.0000   -0.0000   -0.0349   -0.0295    0.0000   -0.0000    0.0000    0.0041
       28 W      8py        0.0042    0.0053    0.0000    0.0000    0.0147    0.0124   -0.0000   -0.0000    0.0000   -0.0008
       29 W      9py       -0.0026   -0.0033   -0.0000    0.0000   -0.0029   -0.0024    0.0000   -0.0000    0.0000   -0.0001
       30 W     10py        0.0014    0.0018    0.0000   -0.0000    0.0020    0.0017   -0.0000    0.0000   -0.0000   -0.0002
       31 W     11py       -0.0008   -0.0010   -0.0000   -0.0000   -0.0022   -0.0019    0.0000    0.0000    0.0000    0.0001
       32 W      2pz       -0.0000    0.0000   -0.0000   -0.0000    0.0000    0.0000    0.0001   -0.0000   -0.0001    0.0000
       33 W      3pz        0.0000    0.0000   -0.0008   -0.0002    0.0000    0.0000    0.0045   -0.0000   -0.0034    0.0000
       34 W      4pz       -0.0000   -0.0000    0.0076    0.0032   -0.0000   -0.0000   -0.0321    0.0000   -0.0012    0.0000
       35 W      5pz       -0.0000   -0.0000    0.0059    0.0385    0.0001    0.0001    0.9965   -0.0000    0.0108   -0.0000
       36 W      6pz        0.0000    0.0000   -0.0020   -0.0050    0.0000    0.0000    0.0324   -0.0000    0.0042   -0.0000
       37 W      7pz       -0.0000   -0.0000    0.0041    0.0067   -0.0000   -0.0000   -0.0511    0.0000   -0.0050    0.0000
       38 W      8pz        0.0000    0.0000   -0.0026   -0.0018    0.0000    0.0000    0.0198    0.0000    0.0013    0.0000
       39 W      9pz       -0.0000   -0.0000    0.0016    0.0001   -0.0000   -0.0000   -0.0049    0.0000   -0.0007    0.0000
       40 W     10pz        0.0000    0.0000   -0.0010   -0.0003    0.0000    0.0000    0.0036   -0.0000    0.0004   -0.0000
       41 W     11pz       -0.0000   -0.0000    0.0005    0.0001   -0.0000   -0.0000   -0.0031   -0.0000   -0.0009   -0.0000
       42 W      3d2-      -0.0057   -0.0072   -0.0000   -0.0000   -0.0006   -0.0005    0.0000    0.0000   -0.0000    0.0013
       43 W      4d2-       0.3284    0.4192    0.0000   -0.0000    0.0049    0.0041   -0.0000   -0.0000    0.0000    0.0037
       44 W      5d2-       0.0113    0.0144    0.0000   -0.0000    0.0076    0.0065   -0.0000   -0.0000   -0.0000    0.0138
       45 W      6d2-      -0.0127   -0.0162   -0.0000    0.0000   -0.0052   -0.0044    0.0000    0.0000    0.0000   -0.0063
       46 W      7d2-       0.0124    0.0159    0.0000   -0.0000    0.0027    0.0023   -0.0000   -0.0000    0.0000    0.0018
       47 W      8d2-      -0.0094   -0.0120   -0.0000   -0.0000   -0.0010   -0.0008    0.0000    0.0000   -0.0000   -0.0006
       48 W      9d2-       0.0064    0.0082    0.0000   -0.0000    0.0006    0.0005   -0.0000   -0.0000   -0.0000    0.0008
       49 W     10d2-      -0.0044   -0.0056   -0.0000    0.0000   -0.0005   -0.0004    0.0000    0.0000    0.0000   -0.0004
       50 W     11d2-       0.0018    0.0023    0.0000    0.0000   -0.0000   -0.0000    0.0000    0.0000   -0.0000    0.0003
       51 W      3d1-      -0.0089   -0.0114   -0.0000    0.0000   -0.0009   -0.0007    0.0000   -0.0000   -0.0000   -0.0009
       52 W      4d1-       0.5188    0.6623    0.0000   -0.0000    0.0082    0.0069   -0.0000    0.0000   -0.0000   -0.0057
       53 W      5d1-       0.0185    0.0236    0.0000    0.0000    0.0182    0.0153   -0.0000    0.0000   -0.0000   -0.0078
       54 W      6d1-      -0.0206   -0.0263   -0.0000   -0.0000   -0.0121   -0.0102    0.0000   -0.0000    0.0000    0.0036
       55 W      7d1-       0.0202    0.0258    0.0000    0.0000    0.0058    0.0049   -0.0000    0.0000   -0.0000   -0.0012
       56 W      8d1-      -0.0153   -0.0195   -0.0000    0.0000   -0.0016   -0.0013    0.0000   -0.0000    0.0000    0.0005
       57 W      9d1-       0.0104    0.0133    0.0000   -0.0000    0.0009    0.0008   -0.0000    0.0000   -0.0000   -0.0005
       58 W     10d1-      -0.0071   -0.0090   -0.0000   -0.0000   -0.0008   -0.0006    0.0000   -0.0000    0.0000    0.0002
       59 W     11d1-       0.0030    0.0038    0.0000   -0.0000   -0.0001   -0.0001    0.0000   -0.0000   -0.0000   -0.0001
       60 W      3d0        0.0000    0.0000   -0.0165    0.0007    0.0000    0.0000    0.0008   -0.0000   -0.0041    0.0000
       61 W      4d0       -0.0000   -0.0000    0.9969   -0.0085   -0.0000   -0.0000   -0.0049    0.0000   -0.0036   -0.0000
       62 W      5d0       -0.0000   -0.0000    0.0342   -0.0032    0.0000   -0.0000    0.0000   -0.0000   -0.0282    0.0000
       63 W      6d0        0.0000    0.0000   -0.0386    0.0026   -0.0000    0.0000    0.0004    0.0000    0.0134   -0.0000
       64 W      7d0       -0.0000   -0.0000    0.0383   -0.0014   -0.0000   -0.0000   -0.0009    0.0000   -0.0041   -0.0000
       65 W      8d0        0.0000    0.0000   -0.0292    0.0009    0.0000    0.0000    0.0012   -0.0000    0.0013    0.0000
       66 W      9d0       -0.0000   -0.0000    0.0200   -0.0010   -0.0000   -0.0000   -0.0007   -0.0000   -0.0020    0.0000
       67 W     10d0        0.0000    0.0000   -0.0136    0.0009    0.0000    0.0000    0.0005   -0.0000    0.0012    0.0000
       68 W     11d0       -0.0000   -0.0000    0.0058   -0.0001   -0.0000    0.0000    0.0000    0.0000   -0.0012    0.0000
       69 W      3d1+      -0.0114    0.0089    0.0000   -0.0000    0.0007   -0.0009   -0.0000   -0.0000   -0.0000   -0.0007
       70 W      4d1+       0.6623   -0.5188   -0.0000   -0.0000   -0.0069    0.0082    0.0000    0.0000    0.0000   -0.0048
       71 W      5d1+       0.0236   -0.0185   -0.0000   -0.0000   -0.0153    0.0182    0.0000    0.0000    0.0000   -0.0065
       72 W      6d1+      -0.0263    0.0206    0.0000    0.0000    0.0102   -0.0121   -0.0000   -0.0000   -0.0000    0.0030
       73 W      7d1+       0.0258   -0.0202   -0.0000   -0.0000   -0.0049    0.0058    0.0000   -0.0000    0.0000   -0.0010
       74 W      8d1+      -0.0195    0.0153    0.0000   -0.0000    0.0013   -0.0016   -0.0000   -0.0000   -0.0000    0.0004
       75 W      9d1+       0.0133   -0.0104   -0.0000   -0.0000   -0.0008    0.0009    0.0000    0.0000    0.0000   -0.0004
       76 W     10d1+      -0.0090    0.0071    0.0000    0.0000    0.0006   -0.0008   -0.0000    0.0000   -0.0000    0.0002
       77 W     11d1+       0.0038   -0.0030   -0.0000    0.0000    0.0001   -0.0001   -0.0000   -0.0000   -0.0000   -0.0001
       78 W      3d2+       0.0072   -0.0057   -0.0000    0.0000   -0.0005    0.0006    0.0000    0.0000    0.0000   -0.0011
       79 W      4d2+      -0.4192    0.3284    0.0000   -0.0000    0.0041   -0.0049   -0.0000    0.0000   -0.0000   -0.0031
       80 W      5d2+      -0.0144    0.0113    0.0000   -0.0000    0.0065   -0.0076   -0.0000    0.0000   -0.0000   -0.0115
       81 W      6d2+       0.0162   -0.0127   -0.0000    0.0000   -0.0044    0.0052    0.0000   -0.0000    0.0000    0.0053
       82 W      7d2+      -0.0159    0.0124    0.0000   -0.0000    0.0023   -0.0027   -0.0000    0.0000    0.0000   -0.0015
       83 W      8d2+       0.0120   -0.0094   -0.0000   -0.0000   -0.0008    0.0010    0.0000   -0.0000   -0.0000    0.0005
       84 W      9d2+      -0.0082    0.0064    0.0000   -0.0000    0.0005   -0.0006   -0.0000    0.0000   -0.0000   -0.0006
       85 W     10d2+       0.0056   -0.0044   -0.0000    0.0000   -0.0004    0.0005    0.0000   -0.0000   -0.0000    0.0003
       86 W     11d2+      -0.0023    0.0018    0.0000    0.0000   -0.0000    0.0000    0.0000    0.0000    0.0000   -0.0002
[...]
      *                                                                                                  *
      ****************************************************************************************************


++ Dipole transition strengths (SO states):
   ----------------------------------------
    for osc. strength at least    1.0000000000000001E-005

      From   To        Osc. strength     Einstein coefficients Ax, Ay, Az (sec-1)    Total A (sec-1)
     -----------------------------------------------------------------------------------------------
         1    7       1.39421602E-05  5.53843188E+00  1.22173187E+01  1.82536465E+01  3.60093970E+01
         1    9       3.28264971E-05  1.22181215E+01  5.53920366E+00  6.70275321E+01  8.47848573E+01
         1   11       3.98096113E-02  8.53871130E+06  2.41142262E+07  2.00652661E-03  3.26529375E+07
         1   13       6.89815510E-02  7.05027494E+06  1.74760855E+07  3.29729785E+07  5.74993389E+07
         1   15       2.96097632E-02  1.74754082E+07  7.04987288E+06  1.55849134E+05  2.46811302E+07
         1   17       1.19675900E-04  3.84809756E+04  1.08660268E+05  2.07839305E-03  1.47141245E+05
         2    8       1.39421602E-05  5.53843188E+00  1.22173187E+01  1.82536465E+01  3.60093970E+01
         2   10       3.28264971E-05  1.22181215E+01  5.53920366E+00  6.70275321E+01  8.47848573E+01
         2   12       3.98096113E-02  8.53871130E+06  2.41142262E+07  2.00652661E-03  3.26529375E+07
         2   14       6.89815510E-02  7.05027494E+06  1.74760855E+07  3.29729785E+07  5.74993389E+07
         2   16       2.96097632E-02  1.74754082E+07  7.04987288E+06  1.55849134E+05  2.46811302E+07
         2   18       1.19675900E-04  3.84809756E+04  1.08660268E+05  2.07839305E-03  1.47141245E+05
         3    7       3.28254300E-05  1.22172084E+01  5.53846272E+00  6.70224179E+01  8.47780890E+01
         3    9       1.39421718E-05  5.53846546E+00  1.22171645E+01  1.82534148E+01  3.60090448E+01
         3   11       3.98076281E-02  2.41126673E+07  8.53859047E+06  1.03288636E-03  3.26512578E+07
         3   13       2.96118952E-02  1.74766115E+07  7.05039318E+06  1.55850787E+05  2.46828555E+07
         3   15       6.89812848E-02  7.05064535E+06  1.74758323E+07  3.29725747E+07  5.74990524E+07
         3   17       1.19667591E-04  1.08658514E+05  3.84723205E+04  3.97561399E-04  1.47130835E+05
         4    8       3.28254300E-05  1.22172084E+01  5.53846272E+00  6.70224179E+01  8.47780890E+01
         4   10       1.39421718E-05  5.53846546E+00  1.22171645E+01  1.82534148E+01  3.60090448E+01
         4   12       3.98076281E-02  2.41126673E+07  8.53859047E+06  1.03288636E-03  3.26512578E+07
         4   14       2.96118952E-02  1.74766115E+07  7.05039318E+06  1.55850787E+05  2.46828555E+07
         4   16       6.89812848E-02  7.05064535E+06  1.74758323E+07  3.29725747E+07  5.74990524E+07
         4   18       1.19667591E-04  1.08658514E+05  3.84723205E+04  3.97561399E-04  1.47130835E+05
         5   11       6.81337523E-02  7.36757686E-04  4.76670180E-03  5.31850907E+07  5.31850907E+07
         5   13       3.28545331E-02  5.30872245E+06  2.07644050E+07  2.94417133E-04  2.60731274E+07
         5   15       3.28539761E-02  2.07641747E+07  5.30852369E+06  5.90724480E-03  2.60726984E+07
         5   17       3.60641625E-02  6.64111889E-04  2.08699502E-03  4.25870387E+07  4.25870387E+07
         6   12       6.81337523E-02  7.36757686E-04  4.76670180E-03  5.31850907E+07  5.31850907E+07
         6   14       3.28545331E-02  5.30872245E+06  2.07644050E+07  2.94417133E-04  2.60731274E+07
         6   16       3.28539761E-02  2.07641747E+07  5.30852369E+06  5.90724480E-03  2.60726984E+07
         6   18       3.60641625E-02  6.64111889E-04  2.08699502E-03  4.25870387E+07  4.25870387E+07
         7   11       3.17891930E-02  2.31578917E+07  7.22777357E+04  8.28368694E-04  2.32301694E+07
         7   13       4.36139299E-02  7.24355295E+06  2.16972451E+07  3.47881248E+06  3.24196106E+07
         7   15       6.33944381E-02  2.16971029E+07  7.24382949E+06  1.81821786E+07  4.71231110E+07
         7   17       1.14296994E-02  1.27543489E+07  3.97954315E+04  1.66506080E-05  1.27941444E+07
         8   12       3.17891930E-02  2.31578917E+07  7.22777357E+04  8.28368694E-04  2.32301694E+07
         8   14       4.36139299E-02  7.24355295E+06  2.16972451E+07  3.47881248E+06  3.24196106E+07
         8   16       6.33944381E-02  2.16971029E+07  7.24382949E+06  1.81821786E+07  4.71231110E+07
         8   18       1.14296994E-02  1.27543489E+07  3.97954315E+04  1.66506080E-05  1.27941444E+07
         9   11       3.17873190E-02  7.22295658E+04  2.31565451E+07  4.06686281E-03  2.32287747E+07
         9   13       6.33945518E-02  2.16972054E+07  7.24403872E+06  1.81818760E+07  4.71231201E+07
         9   15       4.36155189E-02  7.24414225E+06  2.16977730E+07  3.47885809E+06  3.24207734E+07
         9   17       1.14298550E-02  3.97956583E+04  1.27545117E+07  5.17261695E-03  1.27943073E+07
        10   12       3.17873190E-02  7.22295658E+04  2.31565451E+07  4.06686281E-03  2.32287747E+07
        10   14       6.33945518E-02  2.16972054E+07  7.24403872E+06  1.81818760E+07  4.71231201E+07
        10   16       4.36155189E-02  7.24414225E+06  2.16977730E+07  3.47885809E+06  3.24207734E+07
        10   18       1.14298550E-02  3.97956583E+04  1.27545117E+07  5.17261695E-03  1.27943073E+07
        11   17       2.49577724E-04  5.25929707E-06  9.56101168E-07  1.03013781E+04  1.03013781E+04
        12   18       2.49577724E-04  5.25929707E-06  9.56101168E-07  1.03013781E+04  1.03013781E+04
        13   17       4.90702055E-04  3.83192915E+03  1.49880081E+04  2.88310380E-07  1.88199372E+04
        14   18       4.90702055E-04  3.83192915E+03  1.49880081E+04  2.88310380E-07  1.88199372E+04
        15   17       4.90708656E-04  1.49882985E+04  3.83184908E+03  1.34123160E-07  1.88201475E+04
        16   18       4.90708656E-04  1.49882985E+04  3.83184908E+03  1.34123160E-07  1.88201475E+04
     -----------------------------------------------------------------------------------------------
--

++ Velocity transition strengths (SO states):
   ------------------------------------------
    for osc. strength at least    1.0000000000000001E-005

      From   To        Osc. strength     Einstein coefficients Ax, Ay, Az (sec-1)    Total A (sec-1)
     -----------------------------------------------------------------------------------------------
         1    5       2.70558449E-04  3.47108394E+01  9.80242280E+01  5.36675320E-11  1.32735067E+02
         1   11       4.49766793E-02  9.64702152E+06  2.72442156E+07  2.25585864E-03  3.68912371E+07
         1   13       7.60319348E-02  7.74404276E+06  1.91957690E+07  3.64365710E+07  6.33763828E+07
         1   15       3.25245630E-02  1.91950356E+07  7.74359242E+06  1.72219127E+05  2.71108472E+07
         2    6       2.70558449E-04  3.47108394E+01  9.80242280E+01  5.36675320E-11  1.32735067E+02
         2   12       4.49766793E-02  9.64702152E+06  2.72442156E+07  2.25585864E-03  3.68912371E+07
         2   14       7.60319348E-02  7.74404276E+06  1.91957690E+07  3.64365710E+07  6.33763828E+07
         2   16       3.25245630E-02  1.91950356E+07  7.74359242E+06  1.72219127E+05  2.71108472E+07
         3    5       2.70571569E-04  9.80226696E+01  3.47100123E+01  3.38885836E-09  1.32732682E+02
         3   11       4.49745347E-02  2.72425105E+07  9.64690754E+06  1.03947625E-03  3.68894180E+07
         3   13       3.25269387E-02  1.91963784E+07  7.74416894E+06  1.72223175E+05  2.71127705E+07
         3   15       7.60317874E-02  7.74446636E+06  1.91955186E+07  3.64362038E+07  6.33761887E+07
         4    6       2.70571569E-04  9.80226696E+01  3.47100123E+01  3.38885836E-09  1.32732682E+02
         4   12       4.49745347E-02  2.72425105E+07  9.64690754E+06  1.03947625E-03  3.68894180E+07
         4   14       3.25269387E-02  1.91963784E+07  7.74416894E+06  1.72223175E+05  2.71127705E+07
         4   16       7.60317874E-02  7.74446636E+06  1.91955186E+07  3.64362038E+07  6.33761887E+07
         5    7       3.89084644E-05  3.18856905E+01  9.95048332E-02  1.46621786E-08  3.19851954E+01
         5    9       3.89079601E-05  9.94725557E-02  3.18863490E+01  2.06416844E-08  3.19858216E+01
         5   11       8.75560119E-02  6.46385286E-04  5.73369398E-03  6.83463110E+07  6.83463110E+07
         5   13       3.26821715E-02  5.28088865E+06  2.06555440E+07  1.24058717E-04  2.59364326E+07
         5   15       3.26816502E-02  2.06553326E+07  5.28069926E+06  6.70694901E-03  2.59360319E+07
         5   17       2.35577787E-02  4.86253926E-04  1.03929294E-03  2.78187389E+07  2.78187389E+07
         6    8       3.89084644E-05  3.18856905E+01  9.95048332E-02  1.46621786E-08  3.19851954E+01
         6   10       3.89079601E-05  9.94725557E-02  3.18863490E+01  2.06416844E-08  3.19858216E+01
         6   12       8.75560119E-02  6.46385286E-04  5.73369398E-03  6.83463110E+07  6.83463110E+07
         6   14       3.26821715E-02  5.28088865E+06  2.06555440E+07  1.24058717E-04  2.59364326E+07
         6   16       3.26816502E-02  2.06553326E+07  5.28069926E+06  6.70694901E-03  2.59360319E+07
         6   18       2.35577787E-02  4.86253926E-04  1.03929294E-03  2.78187389E+07  2.78187389E+07
         7   11       3.54683094E-02  2.58381563E+07  8.06426889E+04  9.05604892E-04  2.59187990E+07
         7   13       4.85836289E-02  8.06348780E+06  2.41533128E+07  3.89706971E+06  3.61138703E+07
         7   15       7.07424010E-02  2.41531795E+07  8.06382413E+06  2.03682657E+07  5.25852693E+07
         7   17       5.95588585E-03  6.64616876E+06  2.07369748E+04  2.62535978E-10  6.66690574E+06
         8   12       3.54683094E-02  2.58381563E+07  8.06426889E+04  9.05604892E-04  2.59187990E+07
         8   14       4.85836289E-02  8.06348780E+06  2.41533128E+07  3.89706971E+06  3.61138703E+07
         8   16       7.07424010E-02  2.41531795E+07  8.06382413E+06  2.03682657E+07  5.25852693E+07
         8   18       5.95588585E-03  6.64616876E+06  2.07369748E+04  2.62535978E-10  6.66690574E+06
         9   11       3.54662189E-02  8.05896998E+04  2.58366533E+07  6.27621752E-03  2.59172430E+07
         9   13       7.07425252E-02  2.41532978E+07  8.06407972E+06  2.03679001E+07  5.25852776E+07
         9   15       4.85854449E-02  8.06414866E+06  2.41539178E+07  3.89713324E+06  3.61151997E+07
         9   17       5.95600775E-03  2.07373195E+04  6.64629899E+06  3.37257663E-03  6.66703632E+06
        10   12       3.54662189E-02  8.05896998E+04  2.58366533E+07  6.27621752E-03  2.59172430E+07
        10   14       7.07425252E-02  2.41532978E+07  8.06407972E+06  2.03679001E+07  5.25852776E+07
        10   16       4.85854449E-02  8.06414866E+06  2.41539178E+07  3.89713324E+06  3.61151997E+07
        10   18       5.95600775E-03  2.07373195E+04  6.64629899E+06  3.37257663E-03  6.66703632E+06
        11   13       4.91417084E-04  5.36659000E+00  2.09909285E+01  8.46925410E-11  2.63575185E+01
        11   15       4.91401299E-04  2.09915700E+01  5.36670555E+00  1.56251348E-08  2.63582756E+01
        11   17       3.25446709E-03  1.89713436E-05  6.88429239E-06  1.34329347E+05  1.34329347E+05
        12   14       4.91417084E-04  5.36659000E+00  2.09909285E+01  8.46925410E-11  2.63575185E+01
        12   16       4.91401299E-04  2.09915700E+01  5.36670555E+00  1.56251348E-08  2.63582756E+01
        12   18       3.25446709E-03  1.89713436E-05  6.88429239E-06  1.34329347E+05  1.34329347E+05
        13   17       4.04617746E-03  3.15965354E+04  1.23587389E+05  1.40368006E-05  1.55183924E+05
        14   18       4.04617746E-03  3.15965354E+04  1.23587389E+05  1.40368006E-05  1.55183924E+05
        15   17       4.04620110E-03  1.23587887E+05  3.15965901E+04  2.71849318E-06  1.55184477E+05
        16   18       4.04620110E-03  1.23587887E+05  3.15965901E+04  2.71849318E-06  1.55184477E+05
     -----------------------------------------------------------------------------------------------
--

++ Length and velocity gauge comparison (SO states):

 --------------------------------------------------
 A comparison between the dipole oscillator strengths in 
 length and velocity gauge will be performed

 All dipole oscillator differences above the tolerance of   0.10000000000000001       will be printed 

 Due to basis set deficiency these oscillator may be problematic 

 The tolerance is defined as ABS(1-O_l/O_v) 
 O_l : dipole oscillator strength in length gauge
 O_p : dipole oscillator strength in velocity gauge
 --------------------------------------------------

  Problematic transitions have been found

      From   To       Difference (%) Osc. st. (len.) Osc. st. (vel.)
     ---------------------------------------------------------------
         1    5      --------------- below threshold  2.70558449E-04
         1    7      ---------------  1.39421602E-05 below threshold
         1    9      ---------------  3.28264971E-05 below threshold
         1   11            11.488327  3.98096113E-02  4.49766793E-02
         1   17      ---------------  1.19675900E-04 below threshold
         2    6      --------------- below threshold  2.70558449E-04
         2    8      ---------------  1.39421602E-05 below threshold
         2   10      ---------------  3.28264971E-05 below threshold
         2   12            11.488327  3.98096113E-02  4.49766793E-02
         2   18      ---------------  1.19675900E-04 below threshold
         3    5      --------------- below threshold  2.70571569E-04
         3    7      ---------------  3.28254300E-05 below threshold
         3    9      ---------------  1.39421718E-05 below threshold
         3   11            11.488516  3.98076281E-02  4.49745347E-02
         3   17      ---------------  1.19667591E-04 below threshold
         4    6      --------------- below threshold  2.70571569E-04
         4    8      ---------------  3.28254300E-05 below threshold
         4   10      ---------------  1.39421718E-05 below threshold
         4   12            11.488516  3.98076281E-02  4.49745347E-02
         4   18      ---------------  1.19667591E-04 below threshold
         5    7      --------------- below threshold  3.89084644E-05
         5    9      --------------- below threshold  3.89079601E-05
         5   11            22.182668  6.81337523E-02  8.75560119E-02
         5   17            53.088128  3.60641625E-02  2.35577787E-02
         6    8      --------------- below threshold  3.89084644E-05
         6   10      --------------- below threshold  3.89079601E-05
         6   12            22.182668  6.81337523E-02  8.75560119E-02
         6   18            53.088128  3.60641625E-02  2.35577787E-02
         7   11            10.372968  3.17891930E-02  3.54683094E-02
         7   13            10.229164  4.36139299E-02  4.85836289E-02
         7   15            10.386929  6.33944381E-02  7.07424010E-02
         7   17            91.905951  1.14296994E-02  5.95588585E-03
         8   12            10.372968  3.17891930E-02  3.54683094E-02
         8   14            10.229164  4.36139299E-02  4.85836289E-02
         8   16            10.386929  6.33944381E-02  7.07424010E-02
         8   18            91.905951  1.14296994E-02  5.95588585E-03
         9   11            10.372969  3.17873190E-02  3.54662189E-02
         9   13            10.386926  6.33945518E-02  7.07425252E-02
         9   15            10.229249  4.36155189E-02  4.85854449E-02
         9   17            91.904637  1.14298550E-02  5.95600775E-03
        10   12            10.372969  3.17873190E-02  3.54662189E-02
        10   14            10.386926  6.33945518E-02  7.07425252E-02
        10   16            10.229249  4.36155189E-02  4.85854449E-02
        10   18            91.904637  1.14298550E-02  5.95600775E-03
        11   13      --------------- below threshold  4.91417084E-04
        11   15      --------------- below threshold  4.91401299E-04
        11   17            92.331226  2.49577724E-04  3.25446709E-03
        12   14      --------------- below threshold  4.91417084E-04
        12   16      --------------- below threshold  4.91401299E-04
        12   18            92.331226  2.49577724E-04  3.25446709E-03
        13   17            87.872453  4.90702055E-04  4.04617746E-03
        14   18            87.872453  4.90702055E-04  4.04617746E-03
        15   17            87.872361  4.90708656E-04  4.04620110E-03
        16   18            87.872361  4.90708656E-04  4.04620110E-03
     ---------------------------------------------------------------

 Number of problematic transitions =                    54

--

 Electric-dipole - electric-octupole not included
++ I/O STATISTICS
 
  I. General I/O information
  - - - - - - - - - - - - - - - - - - - - - - - - - - - - - - - - - - - - - - - - - - -
  Unit  Name          Flsize      Write/Read            MBytes           Write/Read
                      (MBytes)       Calls              In/Out           Time, sec.
  - - - - - - - - - - - - - - - - - - - - - - - - - - - - - - - - - - - - - - - - - - -
   1  SCRATCH           0.00 .       9/      45 .      0.0/      0.0 .       0/       0
   2  ANNI              0.00 .       0/       0 .      0.0/      0.0 .       0/       0
   3  RUNFILE          15.28 .     322/   10733 .      2.3/     77.8 .       0/       0
   4  ONEINT            6.58 .       0/   28767 .      0.0/   3777.9 .       0/       0
   5  JOBIPH            7.71 .       0/      92 .      0.0/      0.9 .       0/       0
   6  ORDINT          771.03 .       1/    6169 .      0.0/   1542.0 .       0/       0
  - - - - - - - - - - - - - - - - - - - - - - - - - - - - - - - - - - - - - - - - - - -
   *  TOTAL           800.61 .     332/   45806 .      2.3/   5398.7 .       0/       0
  - - - - - - - - - - - - - - - - - - - - - - - - - - - - - - - - - - - - - - - - - - -
 
  II. I/O Access Patterns
  - - - - - - - - - - - - - - - - - - - -
  Unit  Name               % of random
                         Write/Read calls
  - - - - - - - - - - - - - - - - - - - -
   1  SCRATCH             88.9/ 100.0
   2  ANNI                 0.0/   0.0
   3  RUNFILE             28.6/  10.8
   4  ONEINT               0.0/  13.4
   5  JOBIPH               0.0/  76.1
   6  ORDINT             100.0/   0.0
  - - - - - - - - - - - - - - - - - - - -
--
--- Stop Module: rassi at Thu Jan  9 21:08:31 2025 /rc=_RC_ALL_IS_WELL_ ---
*** files: xmldump
    saved to directory /home4/s4752295/Internship/Initial_simulations/Point_charge_model/1_electron/active_space_9_non_rel/W/varying_bond_length
--- Module rassi spent 4 seconds ---

.##################.
.# Happy landing! #.
.##################.

    Timing: Wall=144.71 User=115.45 System=24.48

###############################################################################
Hbrk Cluster
Job 14549898 for user s4752295
Finished at: Thu Jan  9 21:08:32 CET 2025

Job details:
============

Job ID                         : 14549898
Name                           : W_no_c_light
User                           : s4752295
Partition                      : regularmedium
Nodes                          : node70
Number of Nodes                : 1
Cores                          : 1
Number of Tasks                : 1
State                          : RUNNING  
Submit                         : 2025-01-09T21:06:01
Start                          : 2025-01-09T21:06:02
End                            : --
Reserved walltime              : 15:00:00
Used walltime                  : 00:02:30
Used CPU time                  : -- 
% User (Computation)           : --
% System (I/O)                 : --
Total memory reserved          : 25000M
Maximum memory used            : --

Acknowledgements:
=================

Please see this page for information about acknowledging Hbrk in your publications:

https://wiki.hpc.rug.nl/habrok/introduction/scientific_output

################################################################################
