   This run of MOLCAS is using the pymolcas driver

                             OPE
                             OPE          NMOL  CASOP  ENMOLC A   SO
                 OPE        NMOLC        AS  OP EN  MO LC     AS  OP
                OPENM       OL CA        SO  PE NM  OL CA     SOP EN
                OP EN      MO   LC       AS  OP ENMOL  CASO   PENMOL
                OP  EN     MO   LC       AS  OP EN     MO     LC ASO
               OP   E  NMOL  C  AS       OP  EN MO     LC     AS  OP
               OP  E   NMO   LC AS        OPEN  MO     LCASOP EN   M
               O  PEN   MO  LCA  SO
            OPE   NMO   L   CAS    OP
        OPENMOL  CASOP     ENMOL   CASOPE
     OPENMOLCA   SOPENMOLCASOPEN   MOLCASOPE
    OPENMOLCAS   OP           EN   MOL    CAS
    OPENMOLCAS       OP  ENM        O     LCA
    OPENMOLCAS    OPEN  MOLCASO     P  E  NMO
    OPENMOLCAS     OP               E  N  MOL
    OPENMOLCA   SO           PENM   O  L  CAS    OPEN    MO    LCAS
    OPENMOLCA   SOP           ENM   O  L  CAS   OP  EN  MOLC  AS   O
    OPENMOLCA   SOPE           NM      O  LCA   S      OP  EN MO
    OPENMOLC                AS         O  PEN   M      OL  CA  SOPE
    OPENMO        LCASOPE  NMOL        C  ASO   P      ENMOLC     AS
    OPE     NMO      LCA  SO     P     E   NM   OL  CA SO  PE N   MO
          OPENMOLCA            SOPE   NMO        LCAS  O    P  ENMO
     OPENMOLCASOPENMOLCASOPENMOLCASOPENMOLCA
        OPENMOLCASOPENMOLCASOPENMOLCASOPE
            OPENMOLCASOPENMOLCASOPENM
               OPENMOLCASOPENMOLCA        version: o91e1abe7de707b ?
                   OPENMOLCASO
                       OPE                tag:

 OpenMolcas is free software; you can redistribute it and/or modify it
 under the terms of the GNU Lesser General Public License version 2.1.
 OpenMolcas is distributed in the hope that it will be useful, but it
 is provided "as is" and without any express or implied warranties.
 For more details see the full text of the license in the file
 LICENSE or in <http://www.gnu.org/licenses/>.

                 Copyright (C) The OpenMolcas Authors
           For the author list and the recommended citation,
                   consult the file CONTRIBUTORS.md

           *************************************************
           * pymolcas version py2.10                       *
           *   build 3068ae8b88c9345ec6cfef6fef7f1169      *
           *   (after the EMIL interpreter by V. Veryazov) *
           *************************************************

configuration info
------------------
Host name: login1 (Linux)
C Compiler ID: GNU
C flags: -std=gnu99
Fortran Compiler ID: GNU
Fortran flags: -fno-aggressive-loop-optimizations -cpp -fdefault-integer-8 -fmax-stack-var-size=1048576
Definitions: _MOLCAS_;_I8_;_LINUX_;_MKL_
Parallel: OFF (GA=OFF)


   ---------------------------------------------------------------------------------------------------------------------------------------------
  |
  |           Project: tungsten_so_cf
  |    Submitted from: /home4/s4752295/Internship/Initial_simulations/Point_charge_model/1_electron/active_space_9_non_rel/W/varying_bond_length
  |      Scratch area: /tmp/tungsten_so_cf
  |   Save outputs to: /home4/s4752295/Internship/Initial_simulations/Point_charge_model/1_electron/active_space_9_non_rel/W/varying_bond_length
  |            Molcas: /home4/s4752295/Internship/Molcas/recomp_try/OpenMolcas-master/build
  |
  | Scratch area is empty
  |
  |    MOLCAS_DRIVER = /home4/s4752295/Internship/Molcas/bin/pymolcas
  |    MOLCAS_NPROCS = 1
  |    MOLCAS_SOURCE = /home4/s4752295/Internship/Molcas/recomp_try/OpenMolcas-master
  | MOLCAS_STRUCTURE = 0
  |
   ---------------------------------------------------------------------------------------------------------------------------------------------

++ ---------   Input file   ---------

&SEWARD
AMFi

CLIG
$R

Basis Set
W.ANO-rcc.Roos.24s21p15d11f4g2h.11s10p9d8f4g2h.
Spherical d
W            0.0        0.0     0.0
End of Basis

Xfield

4
0.000000,  0.0000,  0.378       -1.0
0.327358,  0.0000, -0.189       -1.0
-0.163679,  0.2835, -0.189      -1.0
-0.163679, -0.2835, -0.189      -1.0

End of input

&SCF
Occupied
34
Iterations
   50  100
End of Input

&RASSCF
LumOrb
Symmetry
1
Spin
2
Nactel
1 0 0
CIRoot
9 9 1
inactive
34
ras2
9
End of Input

>>> COPY tungsten_so_cf.JobIph $SLURM_SUBMIT_DIR/tungsten_so_cf.doublet.JobIph

>>> COPY $SLURM_SUBMIT_DIR/tungsten_so_cf.doublet.JobIph ./JOB002

&RASSI
NROFJobIph
1 All
SpinOrbit
End of Input

EOF

-- ----------------------------------

--- Start Module: seward at Thu Jan  9 20:23:28 2025 ---

()()()()()()()()()()()()()()()()()()()()()()()()()()()()()()()()()()()()()()()()()()()()()()()()()()

                                              &SEWARD

                                   only a single process is used
                       available to each process: 4.1 GB of memory, 1 thread?
                                            pid: 1281107
()()()()()()()()()()()()()()()()()()()()()()()()()()()()()()()()()()()()()()()()()()()()()()()()()()

 The speed of LIGHT in this CALCULATION =   137.03599917700001     
               SEWARD will generate:
                  Multipole Moment integrals up to order  2
                  Kinetic Energy integrals
                  Nuclear Attraction integrals (point charge)
                  One-Electron Hamiltonian integrals
                  Velocity integrals
                  Relativistic Douglas-Kroll-Hess integrals:
                    - Parametrization         : EXP
                    - DKH order of Hamiltonian: 2
                    - DKH order of Properties : 0
                         - multipole moment operators
                         - electric potential operators
                         - contact operators
                  External field from     4 point(s) added to the one-electron Hamiltonian
                  Orbital angular momentum around ( 0.0000  0.0000  0.0000 )
                  Velocity quadrupole around ( 0.0000  0.0000  0.0000 )
                  Atomic mean-field integrals
                  Two-Electron Repulsion integrals

                   Integrals are discarded if absolute value <: 0.10E-13
                   Integral cutoff threshold is set to       <: 0.10E-15

++    Symmetry information:
      ---------------------

                    Character Table for C1 

                             E  
                    a        1  x, y, xy, Rz, z, xz, Ry, yz, Rx, I
--


++    Basis set information:
      ----------------------


      Basis set label: W.ANO-RCC.ROOS.24S21P15D11F4G2H.11S10P9D8F4G2H......

      Electronic valence basis set:
      ------------------
      Associated Effective Charge  74.000000 au
      Associated Actual Charge     74.000000 au
      Nuclear Model: Point charge

      Shell  nPrim  nBasis  Cartesian Spherical Contaminant
         s      24      11        X                  
         p      21      10        X                  
         d      15       9                 X         
         f      11       8                 X         
         g       4       4                 X         
         h       2       2                 X         
--


++    Molecular structure info:
      -------------------------

                    ************************************************ 
                    **** Cartesian Coordinates / Bohr, Angstrom **** 
                    ************************************************ 

     Center  Label                x              y              z                     x              y              z
        1      W                0.000000       0.000000       0.000000              0.000000       0.000000       0.000000
--


++    Operator info:
      --------------


  Net charge from external field:   -4.0000000000000000     
--


            Nuclear Potential Energy              0.00000000 au

                    Nuclear-External Field Potential Energy    -783.06851573 au
                    External Field Potential Energy               9.87314638 au 


            Total Nuclear Potential Energy           -783.06851573 au


      Basis set specifications :
      Symmetry species         a  
      Basis functions          200

 Sorry, Molden does not know how to handle
 functions with angular momentum larger than g
Note: The following floating-point exceptions are signalling: IEEE_UNDERFLOW_FLAG IEEE_DENORMAL
--- Stop Module: seward at Thu Jan  9 20:23:46 2025 /rc=_RC_ALL_IS_WELL_ ---
*** files: tungsten_so_cf.GssOrb xmldump
    saved to directory /home4/s4752295/Internship/Initial_simulations/Point_charge_model/1_electron/active_space_9_non_rel/W/varying_bond_length
--- Module seward spent 18 seconds ---

*** symbolic link created: INPORB -> tungsten_so_cf.GssOrb
--- Start Module: scf at Thu Jan  9 20:23:46 2025 ---

()()()()()()()()()()()()()()()()()()()()()()()()()()()()()()()()()()()()()()()()()()()()()()()()()()

                                                &SCF

                                   only a single process is used
                       available to each process: 4.1 GB of memory, 1 thread?
                                            pid: 1281164
()()()()()()()()()()()()()()()()()()()()()()()()()()()()()()()()()()()()()()()()()()()()()()()()()()

++    Input section:
      --------------

      Header of the integral files:
      
       Integrals generated by seward 4.2.0  , Thu Jan  9 20:23:28 2025


      Cartesian coordinates in Angstrom:
      -----------------------------------------------------
      No.  Label        X            Y            Z        
      -----------------------------------------------------
       1   W          0.00000000   0.00000000   0.00000000
      -----------------------------------------------------
      Nuclear repulsion energy = -783.06851573
--

++    Orbital specifications:
      -----------------------

      Symmetry species               1
                                     a
      Frozen orbitals                0
      Occupied orbitals             34
      Secondary orbitals           166
      Deleted orbitals               0
      Total number of orbitals     200
      Number of basis functions    200
--

      Molecular charge                           6.000

++    Optimization specifications:
      ----------------------------

      SCF Algorithm: Conventional
      Minimized density differences are used
      Number of density matrices in core                5
      Maximum number of NDDO SCF iterations            50
      Maximum number of HF SCF iterations             100
      Threshold for SCF energy change            0.10E-08
      Threshold for density matrix               0.10E-03
      Threshold for Fock matrix                  0.15E-03
      Threshold for linear dependence            0.10E-08
      Threshold at which DIIS is turned on       0.15E+00
      Threshold at which QNR/C2DIIS is turned on 0.75E-01
      Threshold for Norm(delta) (QNR/C2DIIS)     0.20E-04
      DIIS extrapolation of the SCF procedure
      All orbitals punched on: SCFORB
--

      Detected guessorb starting orbitals                                             


++ Convergence information
                                   SCF        iterations: Energy and convergence statistics

Iter     Tot. SCF        One-elec.       Two-elec.     Energy      Max Dij or  Max Fij      DNorm      TNorm      AccCon     Time
         Energy          Energy          Energy        Change      Delta Norm                                                in Sec.

 The total and one-electron energies are shifted by a value of     16000. a.u.

   1  -323.835189470 -5334.086262184  5793.319588443   0.00E+00    0.42E+00*   0.15E+01*    0.12E+02   0.15E+04   None         1.
   2  -230.496767351 -3809.551629663  4362.123378041   0.93E+02*   0.54E+00*   0.51E+00*    0.84E+01   0.13E+04   EDIIS        1.
   3  -329.659974203 -4776.163203260  5229.571744786  -0.99E+02*   0.29E+00*   0.51E+00*    0.50E+01   0.14E+04   EDIIS        1.
   4  -333.806024392 -5102.818533473  5552.081024810  -0.41E+01*   0.38E+00*   0.27E+00*    0.20E+01   0.15E+04   EDIIS        1.
   5  -334.180300635 -4934.872585730  5383.760800823  -0.37E+00*   0.11E+00*   0.14E+00*    0.71E+00   0.15E+04   EDIIS        1.
   6  -334.656207669 -5021.406562451  5469.818870511  -0.48E+00*   0.16E+00*   0.73E-01*    0.38E+00   0.15E+04   EDIIS        1.
   7  -334.639937951 -4980.864830222  5429.293408000   0.16E-01*   0.87E-01*   0.47E-01*    0.15E+00   0.15E+04   EDIIS        1.
   8  -334.701596762 -5006.910388117  5455.277307083  -0.62E-01*   0.43E-01*   0.19E-01*    0.39E-01   0.15E+04   c2DIIS       1.
   9  -334.706309720 -5006.323348724  5454.685554732  -0.47E-02*   0.29E-01*   0.10E-01*    0.14E-01   0.15E+04   QNRc2DIIS    1.
  10  -334.707787039 -5003.263727648  5451.624456337  -0.15E-02*   0.43E-01*   0.83E-02*    0.79E-02   0.15E+04   QNRc2DIIS    1.
  11  -334.708967830 -5005.159426214  5453.518974112  -0.12E-02*   0.95E-02*   0.32E-02*    0.86E-02   0.15E+04   QNRc2DIIS    1.
  12  -334.709143633 -5004.857980054  5453.217352149  -0.18E-03*   0.60E-01*   0.29E-02*    0.61E-02   0.15E+04   QNRc2DIIS    1.
  13  -334.709668046 -5004.542691761  5452.901539444  -0.52E-03*   0.35E-01*   0.18E-02*    0.15E-01   0.15E+04   QNRc2DIIS    1.
  14  -334.709798229 -5004.524689358  5452.883406857  -0.13E-03*   0.96E-02*   0.18E-02*    0.98E-02   0.15E+04   QNRc2DIIS    1.
  15  -334.709877139 -5004.621224070  5452.979862660  -0.79E-04*   0.14E-01*   0.48E-03*    0.15E-01   0.15E+04   QNRc2DIIS    1.
  16  -334.709888191 -5004.640977568  5452.999605105  -0.11E-04*   0.24E-02*   0.23E-03*    0.45E-02   0.15E+04   QNRc2DIIS    1.
  17  -334.709889661 -5004.606484958  5452.965111025  -0.15E-05*   0.11E-02*   0.11E-03     0.19E-02   0.15E+04   QNRc2DIIS    1.
  18  -334.709890189 -5004.593183012  5452.951808552  -0.53E-06*   0.11E-02*   0.78E-04     0.10E-02   0.15E+04   QNRc2DIIS    1.
  19  -334.709890514 -5004.588237688  5452.946862902  -0.33E-06*   0.17E-02*   0.70E-04     0.65E-03   0.15E+04   QNRc2DIIS    1.
  20  -334.709890896 -5004.599289244  5452.957914076  -0.38E-06*   0.11E-02*   0.59E-04     0.88E-03   0.15E+04   QNRc2DIIS    1.
  21  -334.709891088 -5004.603923732  5452.962548372  -0.19E-06*   0.16E-02*   0.70E-04     0.58E-03   0.15E+04   QNRc2DIIS    1.
  22  -334.709891250 -5004.609915884  5452.968540362  -0.16E-06*   0.14E-02*   0.95E-04     0.12E-03   0.15E+04   QNRc2DIIS    1.
  23  -334.709891520 -5004.609071135  5452.967695343  -0.27E-06*   0.68E-02*   0.92E-04     0.21E-03   0.15E+04   QNRc2DIIS    1.
  24  -334.709892487 -5004.594317768  5452.952941010  -0.97E-06*   0.26E-02*   0.12E-03     0.17E-01   0.15E+04   QNRc2DIIS    1.
  25  -334.709892812 -5004.589478787  5452.948101704  -0.32E-06*   0.18E-02*   0.82E-04     0.73E-02   0.15E+04   QNRc2DIIS    1.
  26  -334.709892969 -5004.591778334  5452.950401094  -0.16E-06*   0.16E-03*   0.31E-04     0.21E-02   0.15E+04   QNRc2DIIS    1.
  27  -334.709892993 -5004.595065576  5452.953688311  -0.25E-07*   0.64E-04*   0.93E-05     0.27E-02   0.15E+04   QNRc2DIIS    1.
  28  -334.709892995 -5004.595470504  5452.954093238  -0.12E-08*   0.29E-04*   0.40E-05     0.19E-02   0.15E+04   QNRc2DIIS    1.
  29  -334.709892995 -5004.595327735  5452.953950469  -0.40E-09    0.29E-04*   0.13E-05     0.21E-02   0.15E+04   QNRc2DIIS    1.
  30  -334.709892995 -5004.595139094  5452.953761827  -0.40E-10    0.54E-05    0.36E-06     0.20E-02   0.15E+04   QNRc2DIIS    1.

       Convergence after 30 Macro Iterations
--

 *****************************************************************************************************************************
 *                                                                                                                           *
 *                                             SCF/KS-DFT Program, Final results                                             *
 *                                                                                                                           *
 *                                                                                                                           *
 *                                                                                                                           *
 *                                                       Final Results                                                       *
 *                                                                                                                           *
 *****************************************************************************************************************************

::    Total SCF energy                             -16334.7098929951
      One-electron energy                          -21004.5951390939
      Two-electron energy                            5452.9537618274
      Nuclear repulsion energy                       -783.0685157285
      Kinetic energy (interpolated)                 22434.4663037657
      Virial theorem                                    0.7281077995
      Total spin, S(S+1)                                0.0000000000
      Total spin, S                                     0.0000000000
      Max non-diagonal density matrix element           0.0000087781
      Max non-diagonal Fock matrix element              0.0000015409


      All orbitals with orbital energies smaller than  E(LUMO)+0.5 are printed

++    Molecular orbitals:
      -------------------

      Title: SCF orbitals

      Molecular orbitals for symmetry species 1: a  

          Some orbital energies have been scaled by powers of 10, the power is written right after the orbital index


          Orbital            1 (1)     2         3         4         5         6         7         8         9        10    
          Energy         -256.3862 -448.0964 -393.4558 -393.4558 -393.4359 -105.0937  -88.5630  -88.5630  -88.3368  -68.8460
          Occ. No.          2.0000    2.0000    2.0000    2.0000    2.0000    2.0000    2.0000    2.0000    2.0000    2.0000

        1 W      1s         1.0000    0.0000    0.0000    0.0000   -0.0000   -0.0000    0.0000   -0.0000    0.0000   -0.0000
        2 W      2s        -0.0000    1.0000    0.0000    0.0000   -0.0015    0.0002   -0.0000    0.0000   -0.0001   -0.0000
        3 W      3s         0.0000   -0.0002    0.0000   -0.0000    0.0001    0.9999   -0.0000    0.0000   -0.0143   -0.0000
        4 W      4s        -0.0000    0.0001   -0.0000    0.0000   -0.0000   -0.0032   -0.0000    0.0000    0.0012    0.0000
        5 W      5s         0.0000   -0.0000   -0.0000   -0.0000    0.0000    0.0010    0.0000    0.0000   -0.0004   -0.0000
        6 W      6s        -0.0000    0.0000   -0.0000    0.0000   -0.0000   -0.0003   -0.0000   -0.0000    0.0001    0.0000
        7 W      7s         0.0000   -0.0000   -0.0000   -0.0000    0.0000    0.0003    0.0000    0.0000   -0.0001   -0.0000
        8 W      8s        -0.0000    0.0000    0.0000    0.0000   -0.0000   -0.0008   -0.0000   -0.0000    0.0003    0.0000
        9 W      9s         0.0000   -0.0000   -0.0000   -0.0000    0.0000    0.0010   -0.0000    0.0000   -0.0003   -0.0000
       10 W     10s        -0.0000    0.0000    0.0000    0.0000   -0.0000   -0.0011    0.0000   -0.0000    0.0003    0.0000
       11 W     11s         0.0000   -0.0000   -0.0000   -0.0000    0.0000    0.0013   -0.0000    0.0000   -0.0004   -0.0000
       12 W      2px        0.0000    0.0000    0.9652   -0.2617    0.0000   -0.0000    0.0002   -0.0000    0.0000    0.0000
       13 W      3px       -0.0000    0.0000   -0.0002    0.0001   -0.0000    0.0000    0.9752   -0.2203    0.0000    0.0000
       14 W      4px        0.0000   -0.0000    0.0001   -0.0000    0.0000    0.0000   -0.0031    0.0007   -0.0000    0.0000
       15 W      5px       -0.0000    0.0000   -0.0000    0.0000   -0.0000   -0.0000    0.0009   -0.0002    0.0000   -0.0000
       16 W      6px        0.0000   -0.0000    0.0000   -0.0000    0.0000    0.0000   -0.0004    0.0001   -0.0000    0.0000
       17 W      7px       -0.0000    0.0000   -0.0000    0.0000   -0.0000   -0.0000    0.0011   -0.0002    0.0000   -0.0000
       18 W      8px        0.0000   -0.0000    0.0000   -0.0000    0.0000    0.0000   -0.0011    0.0002   -0.0000    0.0000
       19 W      9px       -0.0000    0.0000   -0.0000    0.0000   -0.0000   -0.0000    0.0011   -0.0002    0.0000   -0.0000
       20 W     10px        0.0000   -0.0000    0.0000   -0.0000    0.0000    0.0000   -0.0010    0.0002   -0.0000    0.0000
       21 W     11px       -0.0000    0.0000   -0.0000    0.0000   -0.0000   -0.0000    0.0007   -0.0002    0.0000   -0.0000
       22 W      2py       -0.0000   -0.0000    0.2617    0.9652    0.0000    0.0000    0.0000    0.0002    0.0000    0.0001
       23 W      3py        0.0000   -0.0000   -0.0001   -0.0002   -0.0000   -0.0000    0.2203    0.9752    0.0000    0.0005
       24 W      4py        0.0000    0.0000    0.0000    0.0001    0.0000   -0.0000   -0.0007   -0.0031   -0.0000    0.0005
       25 W      5py       -0.0000   -0.0000   -0.0000   -0.0000   -0.0000   -0.0000    0.0002    0.0009    0.0000   -0.0001
       26 W      6py       -0.0000    0.0000    0.0000    0.0000    0.0000   -0.0000   -0.0001   -0.0004   -0.0000    0.0001
       27 W      7py       -0.0000   -0.0000   -0.0000   -0.0000   -0.0000    0.0000    0.0002    0.0011    0.0000   -0.0002
       28 W      8py        0.0000    0.0000    0.0000    0.0000    0.0000   -0.0000   -0.0002   -0.0011   -0.0000    0.0002
       29 W      9py       -0.0000   -0.0000   -0.0000   -0.0000   -0.0000    0.0000    0.0002    0.0011    0.0000   -0.0002
       30 W     10py        0.0000    0.0000    0.0000    0.0000    0.0000   -0.0000   -0.0002   -0.0010   -0.0000    0.0001
       31 W     11py       -0.0000   -0.0000   -0.0000   -0.0000   -0.0000    0.0000    0.0002    0.0007    0.0000   -0.0001
       32 W      2pz        0.0000    0.0015   -0.0000    0.0000    1.0000   -0.0001   -0.0000    0.0000    0.0003    0.0000
       33 W      3pz       -0.0000    0.0001    0.0000   -0.0000   -0.0003    0.0143   -0.0000    0.0000    0.9998    0.0000
       34 W      4pz        0.0000   -0.0000   -0.0000    0.0000    0.0001    0.0006    0.0000   -0.0000   -0.0048    0.0000
       35 W      5pz       -0.0000    0.0000    0.0000   -0.0000   -0.0000   -0.0002   -0.0000    0.0000    0.0014   -0.0000
       36 W      6pz        0.0000   -0.0000   -0.0000    0.0000    0.0000    0.0001    0.0000   -0.0000   -0.0006    0.0000
       37 W      7pz       -0.0000    0.0000    0.0000   -0.0000   -0.0000   -0.0002   -0.0000    0.0000    0.0017   -0.0000
       38 W      8pz        0.0000   -0.0000   -0.0000    0.0000    0.0000    0.0002    0.0000   -0.0000   -0.0017    0.0000
       39 W      9pz       -0.0000    0.0000    0.0000   -0.0000   -0.0000   -0.0003   -0.0000    0.0000    0.0017   -0.0000
       40 W     10pz        0.0000   -0.0000   -0.0000    0.0000    0.0000    0.0002    0.0000   -0.0000   -0.0015    0.0000
       41 W     11pz       -0.0000    0.0000    0.0000   -0.0000   -0.0000   -0.0002   -0.0000    0.0000    0.0011   -0.0000
       42 W      3d2-       0.0000    0.0000    0.0000    0.0001    0.0000    0.0000    0.0023    0.0100    0.0000    0.8553
       43 W      4d2-       0.0000   -0.0000   -0.0000   -0.0000   -0.0000    0.0000    0.0004    0.0019    0.0000   -0.0020
       44 W      5d2-       0.0000    0.0000    0.0000    0.0000    0.0000   -0.0000   -0.0001   -0.0004   -0.0000    0.0004
       45 W      6d2-      -0.0000   -0.0000   -0.0000   -0.0000   -0.0000    0.0000    0.0001    0.0006    0.0000   -0.0005
       46 W      7d2-       0.0000    0.0000    0.0000    0.0000    0.0000   -0.0000   -0.0002   -0.0007   -0.0000    0.0007
       47 W      8d2-      -0.0000   -0.0000   -0.0000   -0.0000   -0.0000    0.0000    0.0002    0.0008    0.0000   -0.0008
       48 W      9d2-      -0.0000    0.0000    0.0000    0.0000    0.0000   -0.0000   -0.0002   -0.0008   -0.0000    0.0008
       49 W     10d2-       0.0000   -0.0000   -0.0000   -0.0000   -0.0000    0.0000    0.0002    0.0008    0.0000   -0.0008
       50 W     11d2-      -0.0000    0.0000    0.0000    0.0000    0.0000   -0.0000   -0.0001   -0.0002   -0.0000    0.0004
       51 W      3d1-      -0.0000   -0.0000    0.0001    0.0002    0.0000   -0.0000    0.0040    0.0176    0.0000   -0.5135
       52 W      4d1-      -0.0000    0.0000   -0.0000   -0.0001   -0.0000   -0.0000    0.0006    0.0026    0.0000    0.0007
       53 W      5d1-      -0.0000   -0.0000    0.0000    0.0000    0.0000    0.0000   -0.0001   -0.0005   -0.0000   -0.0002
       54 W      6d1-       0.0000    0.0000   -0.0000   -0.0000   -0.0000   -0.0000    0.0002    0.0007    0.0000    0.0002
       55 W      7d1-      -0.0000   -0.0000    0.0000    0.0000    0.0000    0.0000   -0.0002   -0.0010   -0.0000   -0.0003
       56 W      8d1-       0.0000    0.0000   -0.0000   -0.0000   -0.0000   -0.0000    0.0003    0.0011    0.0000    0.0003
       57 W      9d1-      -0.0000   -0.0000    0.0000    0.0000    0.0000    0.0000   -0.0003   -0.0011   -0.0000   -0.0003
       58 W     10d1-      -0.0000    0.0000   -0.0000   -0.0000   -0.0000   -0.0000    0.0003    0.0011    0.0000    0.0004
       59 W     11d1-       0.0000   -0.0000    0.0000    0.0000    0.0000    0.0000   -0.0001   -0.0005   -0.0000   -0.0003
       60 W      3d0       -0.0000   -0.0001   -0.0000    0.0000    0.0001   -0.0038    0.0000   -0.0000   -0.0073   -0.0000
       61 W      4d0        0.0000    0.0000    0.0000   -0.0000   -0.0000   -0.0009    0.0000   -0.0000   -0.0024    0.0000
       62 W      5d0       -0.0000   -0.0000   -0.0000    0.0000    0.0000    0.0002   -0.0000    0.0000    0.0005   -0.0000
       63 W      6d0        0.0000    0.0000    0.0000   -0.0000   -0.0000   -0.0003    0.0000   -0.0000   -0.0007    0.0000
       64 W      7d0       -0.0000   -0.0000   -0.0000    0.0000    0.0000    0.0003   -0.0000    0.0000    0.0009   -0.0000
       65 W      8d0        0.0000    0.0000    0.0000   -0.0000   -0.0000   -0.0004    0.0000   -0.0000   -0.0010    0.0000
       66 W      9d0       -0.0000   -0.0000   -0.0000    0.0000    0.0000    0.0004   -0.0000    0.0000    0.0010   -0.0000
       67 W     10d0        0.0000    0.0000    0.0000   -0.0000   -0.0000   -0.0004    0.0000   -0.0000   -0.0009    0.0000
       68 W     11d0       -0.0000   -0.0000   -0.0000    0.0000    0.0000    0.0002    0.0000   -0.0000    0.0001   -0.0000
       69 W      3d1+      -0.0000   -0.0000    0.0002   -0.0001    0.0000   -0.0000    0.0176   -0.0040    0.0000   -0.0357
       70 W      4d1+       0.0000    0.0000   -0.0001    0.0000   -0.0000   -0.0000    0.0026   -0.0006    0.0000    0.0000
       71 W      5d1+      -0.0000   -0.0000    0.0000   -0.0000    0.0000    0.0000   -0.0005    0.0001   -0.0000   -0.0000
       72 W      6d1+       0.0000    0.0000   -0.0000    0.0000   -0.0000   -0.0000    0.0007   -0.0002    0.0000    0.0000
       73 W      7d1+      -0.0000   -0.0000    0.0000   -0.0000    0.0000    0.0000   -0.0010    0.0002   -0.0000   -0.0000
       74 W      8d1+       0.0000    0.0000   -0.0000    0.0000   -0.0000   -0.0000    0.0011   -0.0003    0.0000    0.0000
       75 W      9d1+      -0.0000   -0.0000    0.0000   -0.0000    0.0000    0.0000   -0.0011    0.0003   -0.0000   -0.0000
       76 W     10d1+       0.0000    0.0000   -0.0000    0.0000   -0.0000   -0.0000    0.0011   -0.0003    0.0000    0.0000
       77 W     11d1+      -0.0000   -0.0000    0.0000   -0.0000    0.0000    0.0000   -0.0005    0.0001   -0.0000   -0.0000
       78 W      3d2+       0.0000    0.0000   -0.0001    0.0000   -0.0000    0.0000   -0.0100    0.0023   -0.0000   -0.0595
       79 W      4d2+      -0.0000   -0.0000    0.0000   -0.0000    0.0000   -0.0000   -0.0019    0.0004   -0.0000    0.0001
       80 W      5d2+       0.0000    0.0000   -0.0000    0.0000   -0.0000    0.0000    0.0004   -0.0001    0.0000   -0.0000
       81 W      6d2+      -0.0000   -0.0000    0.0000   -0.0000    0.0000   -0.0000   -0.0006    0.0001   -0.0000    0.0000
       82 W      7d2+       0.0000    0.0000   -0.0000    0.0000   -0.0000    0.0000    0.0007   -0.0002    0.0000   -0.0000
       83 W      8d2+      -0.0000   -0.0000    0.0000   -0.0000    0.0000   -0.0000   -0.0008    0.0002   -0.0000    0.0001
       84 W      9d2+       0.0000    0.0000   -0.0000    0.0000   -0.0000    0.0000    0.0008   -0.0002    0.0000   -0.0001
       85 W     10d2+      -0.0000   -0.0000    0.0000   -0.0000    0.0000    0.0000   -0.0008    0.0002   -0.0000    0.0001
       86 W     11d2+       0.0000    0.0000   -0.0000    0.0000   -0.0000   -0.0000    0.0002   -0.0001    0.0000   -0.0000
       87 W      4f3-      -0.0000   -0.0000    0.0000   -0.0000    0.0000   -0.0000   -0.0000   -0.0000   -0.0000    0.0000
       88 W      5f3-      -0.0000    0.0000   -0.0000    0.0000    0.0000    0.0000    0.0000    0.0000   -0.0000   -0.0000
       89 W      6f3-       0.0000   -0.0000    0.0000   -0.0000    0.0000   -0.0000   -0.0000   -0.0000    0.0000    0.0000
       90 W      7f3-       0.0000    0.0000   -0.0000   -0.0000   -0.0000    0.0000    0.0000    0.0000   -0.0000   -0.0000
       91 W      8f3-       0.0000   -0.0000    0.0000    0.0000    0.0000   -0.0000    0.0000   -0.0000    0.0000    0.0000
       92 W      9f3-      -0.0000    0.0000   -0.0000   -0.0000   -0.0000    0.0000   -0.0000   -0.0000    0.0000   -0.0000
       93 W     10f3-       0.0000   -0.0000    0.0000    0.0000    0.0000   -0.0000    0.0000    0.0000   -0.0000    0.0000
       94 W     11f3-      -0.0000    0.0000   -0.0000   -0.0000    0.0000   -0.0000   -0.0000   -0.0000    0.0000   -0.0000
       95 W      4f2-       0.0000    0.0000   -0.0000   -0.0000   -0.0000    0.0000   -0.0004   -0.0019   -0.0000    0.0023
       96 W      5f2-       0.0000   -0.0000    0.0000    0.0000   -0.0000   -0.0000    0.0003    0.0012    0.0000   -0.0015
       97 W      6f2-       0.0000    0.0000   -0.0000   -0.0000   -0.0000    0.0000   -0.0002   -0.0010   -0.0000    0.0013
       98 W      7f2-      -0.0000   -0.0000    0.0000    0.0000    0.0000   -0.0000    0.0002    0.0007    0.0000   -0.0010
       99 W      8f2-       0.0000    0.0000   -0.0000   -0.0000   -0.0000    0.0000   -0.0001   -0.0005    0.0000    0.0008
      100 W      9f2-      -0.0000   -0.0000    0.0000    0.0000    0.0000   -0.0000    0.0000    0.0001   -0.0000   -0.0004
      101 W     10f2-       0.0000    0.0000   -0.0000   -0.0000    0.0000    0.0000    0.0000    0.0001    0.0000    0.0002
      102 W     11f2-      -0.0000   -0.0000    0.0000    0.0000   -0.0000    0.0000   -0.0001   -0.0005   -0.0000    0.0001
      103 W      4f1-       0.0000   -0.0000   -0.0000   -0.0000   -0.0000   -0.0000   -0.0002   -0.0008   -0.0000   -0.0008
      104 W      5f1-      -0.0000    0.0000    0.0000    0.0000    0.0000    0.0000    0.0001    0.0006    0.0000    0.0005
      105 W      6f1-       0.0000   -0.0000   -0.0000   -0.0000   -0.0000   -0.0000   -0.0001   -0.0005   -0.0000   -0.0005
      106 W      7f1-       0.0000    0.0000    0.0000    0.0000    0.0000    0.0000    0.0001    0.0004    0.0000    0.0004
      107 W      8f1-      -0.0000   -0.0000   -0.0000   -0.0000   -0.0000   -0.0000   -0.0001   -0.0003   -0.0000   -0.0003
      108 W      9f1-       0.0000    0.0000    0.0000    0.0000    0.0000    0.0000    0.0000    0.0002    0.0000    0.0002
      109 W     10f1-      -0.0000    0.0000   -0.0000   -0.0000   -0.0000   -0.0000   -0.0000   -0.0001   -0.0000   -0.0002
      110 W     11f1-       0.0000   -0.0000    0.0000    0.0000    0.0000    0.0000   -0.0000   -0.0001    0.0000    0.0001
      111 W      4f0       -0.0000   -0.0000    0.0000   -0.0000   -0.0000   -0.0034    0.0000   -0.0000   -0.0013    0.0000
      112 W      5f0        0.0000    0.0000   -0.0000    0.0000    0.0000    0.0023   -0.0000    0.0000    0.0008   -0.0000
      113 W      6f0       -0.0000   -0.0000    0.0000   -0.0000   -0.0000   -0.0020    0.0000   -0.0000   -0.0007    0.0000
      114 W      7f0        0.0000    0.0000   -0.0000    0.0000    0.0000    0.0016   -0.0000    0.0000    0.0006   -0.0000
      115 W      8f0        0.0000   -0.0000    0.0000   -0.0000   -0.0000   -0.0011    0.0000   -0.0000   -0.0004   -0.0000
      116 W      9f0       -0.0000    0.0000   -0.0000    0.0000    0.0000    0.0005   -0.0000    0.0000    0.0002    0.0000
      117 W     10f0        0.0000   -0.0000    0.0000   -0.0000   -0.0000   -0.0001    0.0000   -0.0000   -0.0000   -0.0000
      118 W     11f0       -0.0000    0.0000   -0.0000    0.0000    0.0000   -0.0007    0.0000   -0.0000   -0.0002    0.0000
      119 W      4f1+       0.0000    0.0000   -0.0000    0.0000   -0.0000    0.0000   -0.0008    0.0002   -0.0000   -0.0001
      120 W      5f1+      -0.0000   -0.0000    0.0000   -0.0000    0.0000   -0.0000    0.0006   -0.0001    0.0000    0.0000
      121 W      6f1+       0.0000    0.0000   -0.0000    0.0000   -0.0000    0.0000   -0.0005    0.0001   -0.0000   -0.0000
      122 W      7f1+      -0.0000   -0.0000    0.0000   -0.0000    0.0000   -0.0000    0.0004   -0.0001    0.0000    0.0000
      123 W      8f1+      -0.0000    0.0000   -0.0000    0.0000   -0.0000    0.0000   -0.0003    0.0001   -0.0000   -0.0000
      124 W      9f1+       0.0000   -0.0000    0.0000   -0.0000    0.0000   -0.0000    0.0002   -0.0000    0.0000    0.0000
      125 W     10f1+      -0.0000    0.0000   -0.0000    0.0000   -0.0000    0.0000   -0.0001    0.0000   -0.0000   -0.0000
      126 W     11f1+       0.0000   -0.0000    0.0000   -0.0000    0.0000    0.0000   -0.0001    0.0000   -0.0000    0.0000
      127 W      4f2+       0.0000   -0.0000    0.0000   -0.0000    0.0000   -0.0000    0.0019   -0.0004    0.0000   -0.0002
      128 W      5f2+      -0.0000    0.0000   -0.0000    0.0000   -0.0000    0.0000   -0.0012    0.0003   -0.0000    0.0001
      129 W      6f2+      -0.0000   -0.0000    0.0000   -0.0000    0.0000   -0.0000    0.0010   -0.0002    0.0000   -0.0001
      130 W      7f2+       0.0000    0.0000   -0.0000    0.0000   -0.0000    0.0000   -0.0007    0.0002   -0.0000    0.0001
      131 W      8f2+      -0.0000   -0.0000    0.0000   -0.0000    0.0000   -0.0000    0.0005   -0.0001    0.0000   -0.0001
      132 W      9f2+       0.0000    0.0000   -0.0000    0.0000   -0.0000    0.0000   -0.0001    0.0000   -0.0000    0.0000
      133 W     10f2+      -0.0000   -0.0000    0.0000   -0.0000    0.0000   -0.0000   -0.0001    0.0000    0.0000   -0.0000
      134 W     11f2+       0.0000    0.0000   -0.0000    0.0000   -0.0000    0.0000    0.0005   -0.0001    0.0000   -0.0000
      135 W      4f3+      -0.0000   -0.0000   -0.0000   -0.0000    0.0000   -0.0022   -0.0000    0.0000    0.0017   -0.0000
      136 W      5f3+       0.0000    0.0000    0.0000    0.0000   -0.0000    0.0015    0.0000   -0.0000   -0.0011    0.0000
      137 W      6f3+      -0.0000   -0.0000   -0.0000   -0.0000    0.0000   -0.0014   -0.0000    0.0000    0.0009   -0.0000
      138 W      7f3+      -0.0000    0.0000    0.0000    0.0000   -0.0000    0.0011    0.0000    0.0000   -0.0007    0.0000
      139 W      8f3+       0.0000   -0.0000   -0.0000   -0.0000    0.0000   -0.0008    0.0000   -0.0000    0.0004   -0.0000
      140 W      9f3+      -0.0000    0.0000    0.0000    0.0000   -0.0000    0.0003   -0.0000    0.0000   -0.0001    0.0000
      141 W     10f3+       0.0000   -0.0000    0.0000   -0.0000    0.0000   -0.0000    0.0000   -0.0000   -0.0001   -0.0000
      142 W     11f3+      -0.0000    0.0000   -0.0000    0.0000   -0.0000   -0.0005   -0.0000    0.0000    0.0005    0.0000
      143 W      5g4-      -0.0000    0.0000   -0.0000   -0.0000    0.0000    0.0000   -0.0001   -0.0005   -0.0000    0.0000
      144 W      6g4-       0.0000   -0.0000    0.0000    0.0000   -0.0000    0.0000    0.0001    0.0004    0.0000    0.0000
      145 W      7g4-      -0.0000    0.0000   -0.0000   -0.0000    0.0000   -0.0000   -0.0001   -0.0004   -0.0000   -0.0000
      146 W      8g4-       0.0000   -0.0000    0.0000    0.0000    0.0000    0.0000    0.0001    0.0003    0.0000    0.0000
      147 W      5g3-      -0.0000   -0.0000   -0.0000   -0.0000   -0.0000   -0.0000    0.0000    0.0000    0.0000   -0.0000
      148 W      6g3-       0.0000    0.0000    0.0000    0.0000    0.0000   -0.0000   -0.0000   -0.0000   -0.0000    0.0000
      149 W      7g3-      -0.0000   -0.0000   -0.0000   -0.0000   -0.0000    0.0000    0.0000    0.0000    0.0000   -0.0000
      150 W      8g3-       0.0000    0.0000    0.0000    0.0000    0.0000   -0.0000   -0.0000   -0.0000   -0.0000    0.0000
      151 W      5g2-       0.0000   -0.0000   -0.0000   -0.0000   -0.0000    0.0000    0.0000    0.0001    0.0000   -0.0001
      152 W      6g2-      -0.0000    0.0000    0.0000    0.0000    0.0000   -0.0000   -0.0000   -0.0001   -0.0000    0.0001
      153 W      7g2-       0.0000   -0.0000   -0.0000   -0.0000   -0.0000    0.0000    0.0000    0.0001    0.0000   -0.0001
      154 W      8g2-      -0.0000    0.0000    0.0000    0.0000    0.0000   -0.0000   -0.0000   -0.0001   -0.0000    0.0000
      155 W      5g1-       0.0000   -0.0000   -0.0000   -0.0000    0.0000    0.0000   -0.0001   -0.0005   -0.0000    0.0002
      156 W      6g1-      -0.0000    0.0000    0.0000    0.0000   -0.0000   -0.0000    0.0001    0.0005    0.0000   -0.0002
      157 W      7g1-       0.0000   -0.0000   -0.0000   -0.0000    0.0000    0.0000   -0.0001   -0.0005   -0.0000    0.0002
      158 W      8g1-      -0.0000    0.0000    0.0000    0.0000   -0.0000   -0.0000    0.0001    0.0003    0.0000   -0.0001
      159 W      5g0       -0.0000   -0.0000    0.0000    0.0000   -0.0000   -0.0000    0.0000   -0.0000   -0.0010   -0.0000
      160 W      6g0        0.0000    0.0000   -0.0000   -0.0000    0.0000    0.0000   -0.0000    0.0000    0.0009    0.0000
      161 W      7g0       -0.0000   -0.0000    0.0000    0.0000   -0.0000   -0.0000    0.0000   -0.0000   -0.0009   -0.0000
      162 W      8g0        0.0000    0.0000   -0.0000   -0.0000    0.0000    0.0000   -0.0000    0.0000    0.0006   -0.0000
      163 W      5g1+      -0.0000    0.0000   -0.0000    0.0000   -0.0000   -0.0000   -0.0005    0.0001   -0.0000    0.0000
      164 W      6g1+       0.0000   -0.0000    0.0000   -0.0000    0.0000    0.0000    0.0005   -0.0001    0.0000   -0.0000
      165 W      7g1+      -0.0000    0.0000   -0.0000    0.0000   -0.0000   -0.0000   -0.0005    0.0001   -0.0000    0.0000
      166 W      8g1+       0.0000   -0.0000    0.0000   -0.0000    0.0000   -0.0000    0.0003   -0.0001    0.0000   -0.0000
      167 W      5g2+       0.0000   -0.0000    0.0000   -0.0000    0.0000    0.0000   -0.0001    0.0000   -0.0000    0.0000
      168 W      6g2+      -0.0000   -0.0000   -0.0000    0.0000   -0.0000   -0.0000    0.0001   -0.0000    0.0000   -0.0000
      169 W      7g2+       0.0000    0.0000    0.0000   -0.0000    0.0000    0.0000   -0.0001    0.0000   -0.0000    0.0000
      170 W      8g2+      -0.0000   -0.0000   -0.0000    0.0000   -0.0000   -0.0000    0.0001   -0.0000    0.0000   -0.0000
      171 W      5g3+       0.0000    0.0000   -0.0000    0.0000    0.0000    0.0005    0.0000   -0.0000   -0.0006   -0.0000
      172 W      6g3+      -0.0000   -0.0000    0.0000   -0.0000   -0.0000   -0.0005   -0.0000    0.0000    0.0006   -0.0000
      173 W      7g3+       0.0000    0.0000    0.0000    0.0000   -0.0000    0.0005    0.0000   -0.0000   -0.0005    0.0000
      174 W      8g3+      -0.0000   -0.0000   -0.0000   -0.0000    0.0000   -0.0003   -0.0000    0.0000    0.0004   -0.0000
      175 W      5g4+       0.0000    0.0000   -0.0000    0.0000    0.0000    0.0000   -0.0005    0.0001   -0.0000    0.0000
      176 W      6g4+      -0.0000   -0.0000    0.0000   -0.0000    0.0000   -0.0000    0.0004   -0.0001    0.0000    0.0000
      177 W      7g4+       0.0000    0.0000   -0.0000    0.0000   -0.0000    0.0000   -0.0004    0.0001   -0.0000   -0.0000
      178 W      8g4+      -0.0000   -0.0000    0.0000   -0.0000    0.0000   -0.0000    0.0003   -0.0001    0.0000    0.0000
      179 W      6h5-      -0.0000   -0.0000    0.0000    0.0000    0.0000    0.0000    0.0000    0.0000    0.0000   -0.0000
      180 W      7h5-       0.0000    0.0000   -0.0000   -0.0000   -0.0000   -0.0000   -0.0000   -0.0000   -0.0000    0.0001
      181 W      6h4-       0.0000    0.0000    0.0000    0.0000    0.0000   -0.0000    0.0000    0.0001    0.0000    0.0000
      182 W      7h4-      -0.0000   -0.0000   -0.0000   -0.0000   -0.0000    0.0000   -0.0000   -0.0001   -0.0000   -0.0000
      183 W      6h3-       0.0000   -0.0000   -0.0000   -0.0000    0.0000    0.0000   -0.0000   -0.0000   -0.0000   -0.0000
      184 W      7h3-      -0.0000    0.0000    0.0000    0.0000    0.0000   -0.0000    0.0000    0.0000   -0.0000    0.0000
      185 W      6h2-      -0.0000   -0.0000    0.0000    0.0000    0.0000    0.0000    0.0000    0.0000    0.0000   -0.0000
      186 W      7h2-       0.0000    0.0000   -0.0000   -0.0000   -0.0000   -0.0000   -0.0000   -0.0000   -0.0000    0.0000
      187 W      6h1-       0.0000    0.0000    0.0000    0.0000    0.0000   -0.0000    0.0000    0.0000    0.0000    0.0000
      188 W      7h1-      -0.0000   -0.0000   -0.0000   -0.0000   -0.0000    0.0000   -0.0000   -0.0001   -0.0000   -0.0000
      189 W      6h0       -0.0000   -0.0000    0.0000   -0.0000   -0.0000   -0.0000    0.0000   -0.0000   -0.0001    0.0000
      190 W      7h0        0.0000    0.0000   -0.0000    0.0000    0.0000    0.0000   -0.0000    0.0000    0.0001   -0.0000
      191 W      6h1+       0.0000   -0.0000    0.0000   -0.0000    0.0000   -0.0000    0.0000   -0.0000    0.0000    0.0000
      192 W      7h1+      -0.0000    0.0000   -0.0000    0.0000   -0.0000    0.0000   -0.0001    0.0000   -0.0000   -0.0000
      193 W      6h2+      -0.0000    0.0000   -0.0000    0.0000    0.0000   -0.0000   -0.0000    0.0000    0.0000    0.0000
      194 W      7h2+       0.0000   -0.0000    0.0000   -0.0000   -0.0000    0.0000    0.0000   -0.0000   -0.0000   -0.0000
      195 W      6h3+      -0.0000    0.0000    0.0000    0.0000   -0.0000   -0.0000   -0.0000    0.0000    0.0000    0.0000
      196 W      7h3+       0.0000   -0.0000   -0.0000   -0.0000    0.0000    0.0000    0.0000   -0.0000   -0.0001   -0.0000
      197 W      6h4+       0.0000    0.0000    0.0000   -0.0000    0.0000   -0.0000    0.0001   -0.0000    0.0000    0.0000
      198 W      7h4+      -0.0000   -0.0000   -0.0000    0.0000   -0.0000    0.0000   -0.0001    0.0000   -0.0000   -0.0000
      199 W      6h5+      -0.0000    0.0000   -0.0000    0.0000   -0.0000   -0.0000   -0.0000    0.0000   -0.0000    0.0000
      200 W      7h5+       0.0000   -0.0000    0.0000   -0.0000    0.0000    0.0000    0.0000   -0.0000    0.0000   -0.0000

          Orbital           11        12        13        14        15        16        17        18        19        20    
          Energy          -68.8460  -68.5774  -68.5687  -68.5687  -22.4032  -17.0579  -17.0579  -16.6582   -9.9774   -9.9774
          Occ. No.          2.0000    2.0000    2.0000    2.0000    2.0000    2.0000    2.0000    2.0000    2.0000    2.0000

        1 W      1s        -0.0000    0.0000    0.0000   -0.0000   -0.0000   -0.0000   -0.0000   -0.0000    0.0000   -0.0000
        2 W      2s        -0.0000    0.0001    0.0000   -0.0000    0.0001   -0.0000    0.0000    0.0000   -0.0000    0.0000
        3 W      3s        -0.0000    0.0037    0.0000   -0.0000   -0.0029    0.0000   -0.0000   -0.0008    0.0000   -0.0000
        4 W      4s         0.0000   -0.0017   -0.0000    0.0000   -0.9969    0.0000   -0.0000   -0.0561    0.0000   -0.0000
        5 W      5s        -0.0000    0.0004    0.0000   -0.0000   -0.0151    0.0000   -0.0000   -0.0054   -0.0000   -0.0000
        6 W      6s         0.0000   -0.0001   -0.0000    0.0000    0.0034   -0.0000    0.0000    0.0010    0.0000    0.0000
        7 W      7s        -0.0000    0.0001    0.0000   -0.0000   -0.0036    0.0000   -0.0000   -0.0011   -0.0000   -0.0000
        8 W      8s         0.0000   -0.0003   -0.0000    0.0000    0.0079   -0.0000    0.0000    0.0023    0.0000    0.0000
        9 W      9s        -0.0000    0.0004    0.0000   -0.0000   -0.0076   -0.0000   -0.0000   -0.0021   -0.0000   -0.0000
       10 W     10s         0.0000   -0.0004   -0.0000    0.0000    0.0054    0.0000    0.0000    0.0014    0.0000    0.0000
       11 W     11s        -0.0000    0.0004    0.0000   -0.0000   -0.0002   -0.0000   -0.0000    0.0002   -0.0000    0.0000
       12 W      2px        0.0001    0.0000   -0.0002    0.0000   -0.0000   -0.0000   -0.0000   -0.0000    0.0000   -0.0000
       13 W      3px        0.0005    0.0000   -0.0207    0.0000    0.0000    0.0001    0.0028    0.0000    0.0000   -0.0001
       14 W      4px        0.0005   -0.0000    0.0042   -0.0000   -0.0000    0.0340    0.9941    0.0000   -0.0002    0.0012
       15 W      5px       -0.0001    0.0000   -0.0012    0.0000    0.0000    0.0005    0.0160    0.0000    0.0002   -0.0012
       16 W      6px        0.0001   -0.0000    0.0005   -0.0000   -0.0000   -0.0002   -0.0054   -0.0000   -0.0001    0.0005
       17 W      7px       -0.0002    0.0000   -0.0013    0.0000    0.0000    0.0004    0.0119    0.0000    0.0001   -0.0009
       18 W      8px        0.0002   -0.0000    0.0012   -0.0000   -0.0000   -0.0003   -0.0078   -0.0000   -0.0001    0.0005
       19 W      9px       -0.0002    0.0000   -0.0012    0.0000    0.0000    0.0001    0.0043    0.0000    0.0000   -0.0002
       20 W     10px        0.0001   -0.0000    0.0010   -0.0000   -0.0000   -0.0000   -0.0012   -0.0000   -0.0000    0.0000
       21 W     11px       -0.0001    0.0000   -0.0005    0.0000    0.0000   -0.0001   -0.0021   -0.0000   -0.0000    0.0002
       22 W      2py       -0.0000    0.0000    0.0000    0.0002   -0.0000   -0.0000    0.0000    0.0000    0.0000    0.0000
       23 W      3py       -0.0000    0.0000    0.0000    0.0207   -0.0000    0.0028   -0.0001    0.0000    0.0001    0.0000
       24 W      4py       -0.0000   -0.0000   -0.0000   -0.0042    0.0000    0.9941   -0.0340    0.0000   -0.0012   -0.0002
       25 W      5py        0.0000    0.0000    0.0000    0.0012   -0.0000    0.0160   -0.0005    0.0000    0.0012    0.0002
       26 W      6py       -0.0000   -0.0000   -0.0000   -0.0005    0.0000   -0.0054    0.0002   -0.0000   -0.0005   -0.0001
       27 W      7py        0.0000    0.0000    0.0000    0.0013    0.0000    0.0119   -0.0004    0.0000    0.0009    0.0001
       28 W      8py       -0.0000   -0.0000   -0.0000   -0.0012   -0.0000   -0.0078    0.0003    0.0000   -0.0005   -0.0001
       29 W      9py        0.0000    0.0000    0.0000    0.0012    0.0000    0.0043   -0.0001   -0.0000    0.0002    0.0000
       30 W     10py       -0.0000   -0.0000   -0.0000   -0.0010   -0.0000   -0.0012    0.0000    0.0000   -0.0000   -0.0000
       31 W     11py        0.0000    0.0000    0.0000    0.0005    0.0000   -0.0021    0.0001   -0.0000   -0.0002   -0.0000
       32 W      2pz        0.0000   -0.0001   -0.0000    0.0000   -0.0000    0.0000    0.0000   -0.0001    0.0000   -0.0000
       33 W      3pz        0.0000    0.0073    0.0000   -0.0000    0.0009   -0.0000   -0.0000    0.0045   -0.0000    0.0000
       34 W      4pz       -0.0000   -0.0034   -0.0000    0.0000   -0.0554   -0.0000   -0.0000    0.9956   -0.0000    0.0000
       35 W      5pz        0.0000    0.0009    0.0000   -0.0000    0.0024   -0.0000   -0.0000    0.0235   -0.0000    0.0000
       36 W      6pz       -0.0000   -0.0004   -0.0000    0.0000   -0.0008    0.0000    0.0000   -0.0079    0.0000   -0.0000
       37 W      7pz        0.0000    0.0011    0.0000   -0.0000    0.0019   -0.0000   -0.0000    0.0174   -0.0000    0.0000
       38 W      8pz       -0.0000   -0.0010   -0.0000    0.0000   -0.0013    0.0000    0.0000   -0.0115    0.0000   -0.0000
       39 W      9pz        0.0000    0.0010    0.0000   -0.0000    0.0008   -0.0000   -0.0000    0.0063   -0.0000    0.0000
       40 W     10pz       -0.0000   -0.0008   -0.0000    0.0000   -0.0003    0.0000   -0.0000   -0.0017    0.0000   -0.0000
       41 W     11pz        0.0000    0.0004    0.0000   -0.0000   -0.0005    0.0000    0.0000   -0.0034    0.0000   -0.0000
       42 W      3d2-      -0.0595   -0.0000   -0.0010   -0.5145    0.0000   -0.0020    0.0001   -0.0000   -0.0016   -0.0002
       43 W      4d2-       0.0001    0.0000    0.0000    0.0037   -0.0000    0.0531   -0.0018    0.0000   -0.8203   -0.1115
       44 W      5d2-      -0.0000   -0.0000   -0.0000   -0.0007   -0.0000   -0.0042    0.0001   -0.0000   -0.0118   -0.0016
       45 W      6d2-       0.0000    0.0000    0.0000    0.0009    0.0000    0.0050   -0.0002    0.0000    0.0125    0.0017
       46 W      7d2-      -0.0000   -0.0000   -0.0000   -0.0012   -0.0000   -0.0051    0.0002   -0.0000   -0.0112   -0.0015
       47 W      8d2-       0.0001    0.0000    0.0000    0.0013    0.0000    0.0038   -0.0001    0.0000    0.0068    0.0009
       48 W      9d2-      -0.0001   -0.0000   -0.0000   -0.0013   -0.0000   -0.0021    0.0001   -0.0000   -0.0032   -0.0004
       49 W     10d2-       0.0001    0.0000    0.0000    0.0012    0.0000    0.0003   -0.0000    0.0000    0.0006    0.0001
       50 W     11d2-      -0.0000   -0.0000   -0.0000   -0.0003   -0.0000    0.0015   -0.0001    0.0000    0.0008    0.0001
       51 W      3d1-       0.0357   -0.0000   -0.0016   -0.8571   -0.0000   -0.0026    0.0001   -0.0000    0.0010    0.0001
       52 W      4d1-      -0.0000    0.0000    0.0000    0.0052    0.0000    0.0796   -0.0027    0.0000    0.5541    0.0753
       53 W      5d1-       0.0000   -0.0000   -0.0000   -0.0010    0.0000   -0.0057    0.0002   -0.0000    0.0081    0.0011
       54 W      6d1-      -0.0000    0.0000    0.0000    0.0014   -0.0000    0.0066   -0.0002    0.0000   -0.0085   -0.0011
       55 W      7d1-       0.0000   -0.0000   -0.0000   -0.0017    0.0000   -0.0067    0.0002   -0.0000    0.0074    0.0010
       56 W      8d1-      -0.0000    0.0000    0.0000    0.0019   -0.0000    0.0049   -0.0002    0.0000   -0.0044   -0.0006
       57 W      9d1-       0.0000   -0.0000   -0.0000   -0.0019    0.0000   -0.0026    0.0001   -0.0000    0.0021    0.0003
       58 W     10d1-      -0.0000    0.0000    0.0000    0.0019   -0.0000    0.0003   -0.0000    0.0000   -0.0004   -0.0000
       59 W     11d1-       0.0000   -0.0000   -0.0000   -0.0006    0.0000    0.0020   -0.0001    0.0000   -0.0004   -0.0001
       60 W      3d0        0.0000    0.9999    0.0000   -0.0000   -0.0017   -0.0000   -0.0000    0.0027    0.0000   -0.0000
       61 W      4d0       -0.0000   -0.0059   -0.0000    0.0000    0.0202    0.0000    0.0000   -0.0573    0.0000   -0.0000
       62 W      5d0        0.0000    0.0011    0.0000   -0.0000   -0.0022   -0.0000   -0.0000    0.0051    0.0000   -0.0000
       63 W      6d0       -0.0000   -0.0015   -0.0000    0.0000    0.0027    0.0000    0.0000   -0.0061   -0.0000    0.0000
       64 W      7d0        0.0000    0.0019    0.0000   -0.0000   -0.0030   -0.0000   -0.0000    0.0065    0.0000   -0.0000
       65 W      8d0       -0.0000   -0.0021   -0.0000    0.0000    0.0024    0.0000    0.0000   -0.0050   -0.0000    0.0000
       66 W      9d0        0.0000    0.0020    0.0000   -0.0000   -0.0015   -0.0000   -0.0000    0.0028    0.0000   -0.0000
       67 W     10d0       -0.0000   -0.0020   -0.0000    0.0000    0.0004    0.0000   -0.0000   -0.0006   -0.0000    0.0000
       68 W     11d0       -0.0000    0.0008    0.0000   -0.0000    0.0010    0.0000    0.0000   -0.0020   -0.0000    0.0000
       69 W      3d1+      -0.5135   -0.0000    0.8571   -0.0016   -0.0000   -0.0001   -0.0026   -0.0000    0.0001   -0.0010
       70 W      4d1+       0.0007    0.0000   -0.0052    0.0000    0.0000    0.0027    0.0796    0.0000    0.0753   -0.5541
       71 W      5d1+      -0.0002   -0.0000    0.0010   -0.0000   -0.0000   -0.0002   -0.0057   -0.0000    0.0011   -0.0081
       72 W      6d1+       0.0002    0.0000   -0.0014    0.0000    0.0000    0.0002    0.0066    0.0000   -0.0011    0.0085
       73 W      7d1+      -0.0003   -0.0000    0.0017   -0.0000   -0.0000   -0.0002   -0.0067   -0.0000    0.0010   -0.0074
       74 W      8d1+       0.0003    0.0000   -0.0019    0.0000    0.0000    0.0002    0.0049    0.0000   -0.0006    0.0044
       75 W      9d1+      -0.0003   -0.0000    0.0019   -0.0000   -0.0000   -0.0001   -0.0026   -0.0000    0.0003   -0.0021
       76 W     10d1+       0.0004    0.0000   -0.0019    0.0000    0.0000    0.0000    0.0003    0.0000   -0.0000    0.0004
       77 W     11d1+      -0.0003   -0.0000    0.0006   -0.0000   -0.0000    0.0001    0.0020    0.0000   -0.0001    0.0004
       78 W      3d2+      -0.8553    0.0000   -0.5145    0.0010   -0.0000    0.0001    0.0020    0.0000    0.0002   -0.0016
       79 W      4d2+       0.0020   -0.0000    0.0037   -0.0000    0.0000   -0.0018   -0.0531    0.0000    0.1115   -0.8203
       80 W      5d2+      -0.0004    0.0000   -0.0007    0.0000   -0.0000    0.0001    0.0042    0.0000    0.0016   -0.0118
       81 W      6d2+       0.0005   -0.0000    0.0009   -0.0000    0.0000   -0.0002   -0.0050   -0.0000   -0.0017    0.0125
       82 W      7d2+      -0.0007    0.0000   -0.0012    0.0000   -0.0000    0.0002    0.0051    0.0000    0.0015   -0.0112
       83 W      8d2+       0.0008   -0.0000    0.0013   -0.0000    0.0000   -0.0001   -0.0038   -0.0000   -0.0009    0.0068
       84 W      9d2+      -0.0008    0.0000   -0.0013    0.0000   -0.0000    0.0001    0.0021    0.0000    0.0004   -0.0032
       85 W     10d2+       0.0008   -0.0000    0.0012   -0.0000   -0.0000   -0.0000   -0.0003   -0.0000   -0.0001    0.0006
       86 W     11d2+      -0.0004    0.0000   -0.0003    0.0000    0.0000   -0.0001   -0.0015    0.0000   -0.0001    0.0008
       87 W      4f3-      -0.0000   -0.0000   -0.0000   -0.0000    0.0000   -0.0000    0.0000   -0.0000   -0.0000   -0.0000
       88 W      5f3-       0.0000    0.0000    0.0000    0.0000    0.0000    0.0000   -0.0000    0.0000    0.0000    0.0000
       89 W      6f3-      -0.0000   -0.0000   -0.0000   -0.0000    0.0000   -0.0000    0.0000    0.0000   -0.0000   -0.0000
       90 W      7f3-       0.0000    0.0000   -0.0000    0.0000   -0.0000    0.0000    0.0000   -0.0000    0.0000    0.0000
       91 W      8f3-      -0.0000   -0.0000    0.0000   -0.0000   -0.0000    0.0000   -0.0000    0.0000   -0.0000   -0.0000
       92 W      9f3-       0.0000    0.0000   -0.0000    0.0000    0.0000   -0.0000    0.0000    0.0000    0.0000    0.0000
       93 W     10f3-      -0.0000   -0.0000    0.0000   -0.0000   -0.0000    0.0000    0.0000   -0.0000    0.0000    0.0000
       94 W     11f3-       0.0000   -0.0000   -0.0000   -0.0000    0.0000   -0.0000    0.0000   -0.0000   -0.0000   -0.0000
       95 W      4f2-      -0.0002   -0.0000   -0.0000   -0.0045   -0.0000   -0.0182    0.0006    0.0000   -0.0323   -0.0044
       96 W      5f2-       0.0001    0.0000    0.0000    0.0029    0.0000    0.0072   -0.0002   -0.0000    0.0079    0.0011
       97 W      6f2-      -0.0001   -0.0000   -0.0000   -0.0025   -0.0000   -0.0041    0.0001   -0.0000   -0.0030   -0.0004
       98 W      7f2-       0.0001    0.0000    0.0000    0.0018   -0.0000    0.0011   -0.0000    0.0000   -0.0004   -0.0000
       99 W      8f2-      -0.0001   -0.0000   -0.0000   -0.0012    0.0000    0.0007   -0.0000   -0.0000    0.0014    0.0002
      100 W      9f2-       0.0000    0.0000    0.0000    0.0005   -0.0000   -0.0015    0.0001   -0.0000   -0.0013   -0.0002
      101 W     10f2-      -0.0000    0.0000    0.0000    0.0000    0.0000    0.0018   -0.0001    0.0000    0.0012    0.0002
      102 W     11f2-      -0.0000   -0.0000   -0.0000   -0.0007    0.0000   -0.0009    0.0000   -0.0000   -0.0005   -0.0001
      103 W      4f1-       0.0001   -0.0000   -0.0000   -0.0008    0.0000   -0.0076    0.0003   -0.0000    0.0130    0.0018
      104 W      5f1-      -0.0000    0.0000    0.0000    0.0005   -0.0000    0.0030   -0.0001    0.0000   -0.0023   -0.0003
      105 W      6f1-       0.0000   -0.0000   -0.0000   -0.0005   -0.0000   -0.0017    0.0001   -0.0000    0.0007    0.0001
      106 W      7f1-      -0.0000    0.0000    0.0000    0.0004    0.0000    0.0003   -0.0000   -0.0000    0.0004    0.0001
      107 W      8f1-       0.0000   -0.0000   -0.0000   -0.0003   -0.0000    0.0005   -0.0000    0.0000   -0.0006   -0.0001
      108 W      9f1-      -0.0000    0.0000    0.0000    0.0002    0.0000   -0.0007    0.0000   -0.0000    0.0005    0.0001
      109 W     10f1-       0.0000   -0.0000   -0.0000   -0.0001    0.0000    0.0007   -0.0000   -0.0000   -0.0004   -0.0001
      110 W     11f1-      -0.0000    0.0000    0.0000    0.0001   -0.0000   -0.0003    0.0000   -0.0000    0.0002    0.0000
      111 W      4f0        0.0000   -0.0019   -0.0000    0.0000    0.0348    0.0000    0.0000   -0.0103   -0.0000    0.0000
      112 W      5f0       -0.0000    0.0012    0.0000   -0.0000   -0.0148   -0.0000   -0.0000    0.0036    0.0000   -0.0000
      113 W      6f0        0.0000   -0.0010   -0.0000    0.0000    0.0086    0.0000    0.0000   -0.0020   -0.0000    0.0000
      114 W      7f0       -0.0000    0.0006    0.0000   -0.0000   -0.0022    0.0000   -0.0000    0.0004    0.0000   -0.0000
      115 W      8f0        0.0000   -0.0003   -0.0000    0.0000   -0.0019   -0.0000    0.0000    0.0005    0.0000   -0.0000
      116 W      9f0       -0.0000   -0.0001    0.0000    0.0000    0.0037    0.0000    0.0000   -0.0008   -0.0000    0.0000
      117 W     10f0        0.0000    0.0004    0.0000   -0.0000   -0.0042   -0.0000   -0.0000    0.0009    0.0000   -0.0000
      118 W     11f0       -0.0000   -0.0008   -0.0000    0.0000    0.0023    0.0000    0.0000   -0.0004   -0.0000    0.0000
      119 W      4f1+      -0.0008   -0.0000    0.0008   -0.0000   -0.0000   -0.0003   -0.0076   -0.0000    0.0018   -0.0130
      120 W      5f1+       0.0005    0.0000   -0.0005    0.0000    0.0000    0.0001    0.0030    0.0000   -0.0003    0.0023
      121 W      6f1+      -0.0005   -0.0000    0.0005   -0.0000   -0.0000   -0.0001   -0.0017   -0.0000    0.0001   -0.0007
      122 W      7f1+       0.0004    0.0000   -0.0004    0.0000    0.0000    0.0000    0.0003    0.0000    0.0001   -0.0004
      123 W      8f1+      -0.0003   -0.0000    0.0003   -0.0000    0.0000    0.0000    0.0005    0.0000   -0.0001    0.0006
      124 W      9f1+       0.0002    0.0000   -0.0002    0.0000   -0.0000   -0.0000   -0.0007   -0.0000    0.0001   -0.0005
      125 W     10f1+      -0.0002   -0.0000    0.0001   -0.0000    0.0000    0.0000    0.0007    0.0000   -0.0001    0.0004
      126 W     11f1+       0.0001    0.0000   -0.0001    0.0000   -0.0000   -0.0000   -0.0003   -0.0000    0.0000   -0.0002
      127 W      4f2+      -0.0023    0.0000   -0.0045    0.0000   -0.0000    0.0006    0.0182   -0.0000    0.0044   -0.0323
      128 W      5f2+       0.0015   -0.0000    0.0029   -0.0000    0.0000   -0.0002   -0.0072   -0.0000   -0.0011    0.0079
      129 W      6f2+      -0.0013    0.0000   -0.0025    0.0000   -0.0000    0.0001    0.0041    0.0000    0.0004   -0.0030
      130 W      7f2+       0.0010   -0.0000    0.0018   -0.0000   -0.0000   -0.0000   -0.0011   -0.0000    0.0000   -0.0004
      131 W      8f2+      -0.0008    0.0000   -0.0012    0.0000    0.0000   -0.0000   -0.0007    0.0000   -0.0002    0.0014
      132 W      9f2+       0.0004   -0.0000    0.0005   -0.0000   -0.0000    0.0001    0.0015   -0.0000    0.0002   -0.0013
      133 W     10f2+      -0.0002   -0.0000    0.0000   -0.0000    0.0000   -0.0001   -0.0018    0.0000   -0.0002    0.0012
      134 W     11f2+      -0.0001    0.0000   -0.0007    0.0000    0.0000    0.0000    0.0009    0.0000    0.0001   -0.0005
      135 W      4f3+      -0.0000    0.0017    0.0000   -0.0000    0.0228   -0.0000   -0.0000    0.0200   -0.0000   -0.0000
      136 W      5f3+       0.0000   -0.0011   -0.0000    0.0000   -0.0097    0.0000    0.0000   -0.0079    0.0000   -0.0000
      137 W      6f3+      -0.0000    0.0009    0.0000   -0.0000    0.0056   -0.0000   -0.0000    0.0045   -0.0000    0.0000
      138 W      7f3+       0.0000   -0.0007   -0.0000    0.0000   -0.0015   -0.0000   -0.0000   -0.0011   -0.0000    0.0000
      139 W      8f3+      -0.0000    0.0005    0.0000   -0.0000   -0.0013    0.0000    0.0000   -0.0008    0.0000   -0.0000
      140 W      9f3+       0.0000   -0.0002   -0.0000    0.0000    0.0024   -0.0000   -0.0000    0.0016   -0.0000    0.0000
      141 W     10f3+      -0.0000    0.0001   -0.0000   -0.0000   -0.0027    0.0000    0.0000   -0.0019    0.0000   -0.0000
      142 W     11f3+       0.0000    0.0002    0.0000   -0.0000    0.0015   -0.0000    0.0000    0.0010    0.0000   -0.0000
      143 W      5g4-      -0.0000   -0.0000   -0.0000   -0.0006    0.0000   -0.0054    0.0002   -0.0000    0.0004    0.0001
      144 W      6g4-      -0.0000    0.0000    0.0000    0.0005   -0.0000    0.0040   -0.0001    0.0000   -0.0005   -0.0001
      145 W      7g4-       0.0000   -0.0000   -0.0000   -0.0004    0.0000   -0.0030    0.0001   -0.0000    0.0004    0.0001
      146 W      8g4-      -0.0000    0.0000    0.0000    0.0003   -0.0000    0.0018   -0.0001    0.0000   -0.0003   -0.0000
      147 W      5g3-       0.0000    0.0000    0.0000    0.0000    0.0000    0.0000   -0.0000   -0.0000    0.0000    0.0000
      148 W      6g3-      -0.0000   -0.0000   -0.0000   -0.0000   -0.0000   -0.0000    0.0000   -0.0000   -0.0000   -0.0000
      149 W      7g3-       0.0000    0.0000    0.0000    0.0000    0.0000    0.0000   -0.0000    0.0000    0.0000    0.0000
      150 W      8g3-      -0.0000   -0.0000   -0.0000   -0.0000    0.0000   -0.0000    0.0000   -0.0000   -0.0000    0.0000
      151 W      5g2-       0.0000    0.0000    0.0000    0.0004    0.0000    0.0006   -0.0000    0.0000    0.0009    0.0001
      152 W      6g2-      -0.0000   -0.0000   -0.0000   -0.0004   -0.0000   -0.0007    0.0000   -0.0000   -0.0003   -0.0000
      153 W      7g2-       0.0000    0.0000    0.0000    0.0003   -0.0000    0.0006   -0.0000    0.0000    0.0002    0.0000
      154 W      8g2-      -0.0000   -0.0000   -0.0000   -0.0002    0.0000   -0.0004    0.0000   -0.0000   -0.0000   -0.0000
      155 W      5g1-      -0.0000   -0.0000   -0.0000   -0.0005   -0.0000   -0.0063    0.0002   -0.0000   -0.0026   -0.0004
      156 W      6g1-       0.0000    0.0000    0.0000    0.0003    0.0000    0.0048   -0.0002    0.0000    0.0019    0.0003
      157 W      7g1-      -0.0000   -0.0000   -0.0000   -0.0003   -0.0000   -0.0036    0.0001   -0.0000   -0.0015   -0.0002
      158 W      8g1-       0.0000    0.0000    0.0000    0.0002    0.0000    0.0021   -0.0001    0.0000    0.0009    0.0001
      159 W      5g0       -0.0000   -0.0011   -0.0000    0.0000    0.0006    0.0000    0.0000   -0.0112    0.0000   -0.0000
      160 W      6g0        0.0000    0.0009    0.0000   -0.0000   -0.0005   -0.0000   -0.0000    0.0085   -0.0000    0.0000
      161 W      7g0       -0.0000   -0.0007   -0.0000    0.0000    0.0004    0.0000    0.0000   -0.0065    0.0000   -0.0000
      162 W      8g0        0.0000    0.0005    0.0000   -0.0000   -0.0002   -0.0000   -0.0000    0.0038    0.0000    0.0000
      163 W      5g1+       0.0002   -0.0000    0.0005   -0.0000    0.0000   -0.0002   -0.0063   -0.0000   -0.0004    0.0026
      164 W      6g1+      -0.0002    0.0000   -0.0003    0.0000   -0.0000    0.0002    0.0048    0.0000    0.0003   -0.0019
      165 W      7g1+       0.0002   -0.0000    0.0003   -0.0000    0.0000   -0.0001   -0.0036   -0.0000   -0.0002    0.0015
      166 W      8g1+      -0.0001    0.0000   -0.0002    0.0000   -0.0000    0.0001    0.0021    0.0000    0.0001   -0.0009
      167 W      5g2+       0.0001   -0.0000    0.0004   -0.0000    0.0000   -0.0000   -0.0006    0.0000   -0.0001    0.0009
      168 W      6g2+      -0.0001    0.0000   -0.0004    0.0000    0.0000    0.0000    0.0007   -0.0000    0.0000   -0.0003
      169 W      7g2+       0.0001   -0.0000    0.0003   -0.0000   -0.0000   -0.0000   -0.0006    0.0000   -0.0000    0.0002
      170 W      8g2+      -0.0000    0.0000   -0.0002    0.0000    0.0000    0.0000    0.0004   -0.0000    0.0000   -0.0000
      171 W      5g3+      -0.0000   -0.0003   -0.0000    0.0000   -0.0054    0.0000    0.0000   -0.0070    0.0000   -0.0000
      172 W      6g3+       0.0000    0.0002    0.0000   -0.0000    0.0044   -0.0000   -0.0000    0.0056    0.0000    0.0000
      173 W      7g3+      -0.0000   -0.0002   -0.0000    0.0000   -0.0036    0.0000    0.0000   -0.0043   -0.0000   -0.0000
      174 W      8g3+       0.0000    0.0001    0.0000   -0.0000    0.0023   -0.0000   -0.0000    0.0025   -0.0000    0.0000
      175 W      5g4+       0.0000   -0.0000    0.0006   -0.0000   -0.0000   -0.0002   -0.0054   -0.0000    0.0001   -0.0004
      176 W      6g4+       0.0000    0.0000   -0.0005    0.0000    0.0000    0.0001    0.0040    0.0000   -0.0001    0.0005
      177 W      7g4+      -0.0000   -0.0000    0.0004   -0.0000   -0.0000   -0.0001   -0.0030   -0.0000    0.0001   -0.0004
      178 W      8g4+       0.0000    0.0000   -0.0003    0.0000    0.0000    0.0001    0.0018    0.0000   -0.0000    0.0003
      179 W      6h5-       0.0000    0.0000    0.0000    0.0000    0.0000    0.0003   -0.0000   -0.0000    0.0014    0.0002
      180 W      7h5-      -0.0000   -0.0000   -0.0000   -0.0001    0.0000   -0.0003    0.0000   -0.0000   -0.0014   -0.0002
      181 W      6h4-      -0.0000    0.0000    0.0000    0.0001   -0.0000    0.0008   -0.0000    0.0000   -0.0007   -0.0001
      182 W      7h4-       0.0000   -0.0000   -0.0000   -0.0001   -0.0000   -0.0010    0.0000   -0.0000    0.0008    0.0001
      183 W      6h3-       0.0000   -0.0000    0.0000   -0.0000    0.0000   -0.0000    0.0000    0.0000    0.0000    0.0000
      184 W      7h3-       0.0000    0.0000   -0.0000    0.0000    0.0000    0.0000   -0.0000    0.0000   -0.0000   -0.0000
      185 W      6h2-       0.0000    0.0000    0.0000    0.0000    0.0000    0.0004   -0.0000   -0.0000    0.0009    0.0001
      186 W      7h2-      -0.0000   -0.0000   -0.0000   -0.0000    0.0000   -0.0004    0.0000    0.0000   -0.0011   -0.0001
      187 W      6h1-      -0.0000    0.0000    0.0000    0.0001   -0.0000    0.0006   -0.0000    0.0000   -0.0012   -0.0002
      188 W      7h1-       0.0000   -0.0000   -0.0000   -0.0001   -0.0000   -0.0005    0.0000   -0.0000    0.0012    0.0002
      189 W      6h0       -0.0000   -0.0001   -0.0000    0.0000    0.0003    0.0000    0.0000   -0.0011   -0.0000    0.0000
      190 W      7h0        0.0000    0.0002    0.0000   -0.0000   -0.0004   -0.0000   -0.0000    0.0009    0.0000   -0.0000
      191 W      6h1+       0.0000    0.0000   -0.0001    0.0000   -0.0000    0.0000    0.0006   -0.0000   -0.0002    0.0012
      192 W      7h1+      -0.0000   -0.0000    0.0001   -0.0000    0.0000   -0.0000   -0.0005    0.0000    0.0002   -0.0012
      193 W      6h2+       0.0000   -0.0000    0.0000   -0.0000    0.0000   -0.0000   -0.0004    0.0000   -0.0001    0.0009
      194 W      7h2+      -0.0000    0.0000   -0.0000    0.0000   -0.0000    0.0000    0.0004   -0.0000    0.0001   -0.0011
      195 W      6h3+      -0.0000   -0.0000   -0.0000    0.0000    0.0004   -0.0000   -0.0000    0.0006    0.0000   -0.0000
      196 W      7h3+       0.0000    0.0000    0.0000   -0.0000   -0.0006    0.0000    0.0000   -0.0009    0.0000    0.0000
      197 W      6h4+       0.0000    0.0000   -0.0001    0.0000    0.0000    0.0000    0.0008    0.0000   -0.0001    0.0007
      198 W      7h4+      -0.0000   -0.0000    0.0001   -0.0000   -0.0000   -0.0000   -0.0010   -0.0000    0.0001   -0.0008
      199 W      6h5+       0.0000   -0.0000    0.0000   -0.0000    0.0000   -0.0000   -0.0003    0.0000   -0.0002    0.0014
      200 W      7h5+      -0.0001    0.0000   -0.0001    0.0000   -0.0000    0.0000    0.0003   -0.0000    0.0002   -0.0014

          Orbital           21        22        23        24        25        26        27        28        29        30    
          Energy           -9.3652   -9.2914   -9.2914   -3.9425   -2.4830   -2.4830   -2.4392   -1.8382   -1.7439   -1.6904
          Occ. No.          2.0000    2.0000    2.0000    2.0000    2.0000    2.0000    2.0000    2.0000    2.0000    2.0000

        1 W      1s        -0.0000   -0.0000   -0.0000   -0.0000   -0.0000   -0.0000    0.0000   -0.0000    0.0000   -0.0000
        2 W      2s        -0.0000   -0.0000   -0.0000    0.0000    0.0000    0.0000   -0.0000    0.0000    0.0000    0.0000
        3 W      3s         0.0007    0.0000    0.0000   -0.0007    0.0000   -0.0000    0.0002    0.0000    0.0004   -0.0000
        4 W      4s         0.0159    0.0000    0.0000   -0.0118   -0.0000   -0.0000    0.0033    0.0000    0.0047   -0.0000
        5 W      5s         0.0108    0.0000    0.0000    0.9952    0.0000    0.0000   -0.0606   -0.0000   -0.0143    0.0000
        6 W      6s        -0.0019   -0.0000   -0.0000    0.0181   -0.0000    0.0000   -0.0096    0.0000   -0.0086   -0.0000
        7 W      7s         0.0019    0.0000    0.0000   -0.0119    0.0000   -0.0000    0.0071    0.0000    0.0060   -0.0000
        8 W      8s        -0.0035   -0.0000   -0.0000    0.0224   -0.0000    0.0000   -0.0087   -0.0000   -0.0068    0.0000
        9 W      9s         0.0028    0.0000    0.0000   -0.0151   -0.0000   -0.0000    0.0026   -0.0000    0.0021   -0.0000
       10 W     10s        -0.0015   -0.0000   -0.0000    0.0046    0.0000    0.0000    0.0002    0.0000   -0.0005    0.0000
       11 W     11s        -0.0003   -0.0000    0.0000   -0.0007   -0.0000   -0.0000    0.0002    0.0000    0.0001    0.0000
       12 W      2px       -0.0000   -0.0000    0.0001   -0.0000   -0.0000   -0.0000    0.0000   -0.0000    0.0000    0.0000
       13 W      3px        0.0000    0.0000   -0.0032    0.0000    0.0006    0.0004   -0.0000   -0.0000    0.0000    0.0000
       14 W      4px        0.0000    0.0003   -0.0914    0.0000    0.0126    0.0070   -0.0000   -0.0000    0.0000    0.0002
       15 W      5px        0.0000    0.0001   -0.0296    0.0000   -0.8665   -0.4847    0.0000    0.0000   -0.0000   -0.0013
       16 W      6px       -0.0000   -0.0000    0.0080   -0.0000   -0.0116   -0.0065    0.0000    0.0000   -0.0000   -0.0003
       17 W      7px        0.0000    0.0000   -0.0155    0.0000    0.0242    0.0136   -0.0000   -0.0000    0.0000    0.0003
       18 W      8px       -0.0000   -0.0000    0.0086   -0.0000   -0.0102   -0.0057    0.0000   -0.0000   -0.0000   -0.0000
       19 W      9px        0.0000    0.0000   -0.0036   -0.0000   -0.0000   -0.0000   -0.0000    0.0000   -0.0000   -0.0000
       20 W     10px       -0.0000   -0.0000    0.0006   -0.0000    0.0005    0.0003    0.0000    0.0000    0.0000   -0.0000
       21 W     11px       -0.0000   -0.0000    0.0025    0.0000   -0.0005   -0.0003    0.0000    0.0000   -0.0000   -0.0000
       22 W      2py       -0.0000    0.0001    0.0000   -0.0000    0.0000   -0.0000   -0.0000   -0.0000    0.0000    0.0000
       23 W      3py        0.0000   -0.0032   -0.0000   -0.0000   -0.0004    0.0006    0.0000    0.0000    0.0000    0.0003
       24 W      4py        0.0000   -0.0914   -0.0003   -0.0000   -0.0070    0.0126    0.0000    0.0000    0.0000    0.0017
       25 W      5py        0.0000   -0.0296   -0.0001    0.0000    0.4847   -0.8665   -0.0000   -0.0000   -0.0000   -0.0108
       26 W      6py       -0.0000    0.0080    0.0000   -0.0000    0.0065   -0.0116   -0.0000   -0.0000   -0.0000   -0.0028
       27 W      7py        0.0000   -0.0155   -0.0000    0.0000   -0.0136    0.0242    0.0000    0.0000    0.0000    0.0028
       28 W      8py       -0.0000    0.0086    0.0000    0.0000    0.0057   -0.0102   -0.0000   -0.0000    0.0000   -0.0002
       29 W      9py        0.0000   -0.0036   -0.0000   -0.0000    0.0000   -0.0000    0.0000   -0.0000    0.0000   -0.0002
       30 W     10py       -0.0000    0.0006    0.0000   -0.0000   -0.0003    0.0005   -0.0000    0.0000   -0.0000   -0.0000
       31 W     11py       -0.0000    0.0025    0.0000   -0.0000    0.0003   -0.0005   -0.0000   -0.0000   -0.0000   -0.0000
       32 W      2pz        0.0000    0.0000    0.0000   -0.0000    0.0000   -0.0000    0.0000   -0.0000   -0.0000    0.0000
       33 W      3pz        0.0023    0.0000    0.0000    0.0002   -0.0000    0.0000   -0.0011    0.0000   -0.0021    0.0000
       34 W      4pz        0.0551    0.0000    0.0000    0.0022   -0.0000    0.0000   -0.0194    0.0000   -0.0240    0.0000
       35 W      5pz        0.0220    0.0000    0.0000    0.0631    0.0000   -0.0000    0.9854   -0.0000    0.1429   -0.0000
       36 W      6pz       -0.0067   -0.0000   -0.0000   -0.0075   -0.0000    0.0000    0.0221    0.0000    0.0383   -0.0000
       37 W      7pz        0.0129    0.0000    0.0000    0.0090   -0.0000    0.0000   -0.0383   -0.0000   -0.0393    0.0000
       38 W      8pz       -0.0071   -0.0000   -0.0000   -0.0014    0.0000   -0.0000    0.0140   -0.0000    0.0055    0.0000
       39 W      9pz        0.0030    0.0000    0.0000   -0.0007   -0.0000    0.0000   -0.0001   -0.0000    0.0011   -0.0000
       40 W     10pz       -0.0005   -0.0000    0.0000   -0.0001   -0.0000    0.0000   -0.0001    0.0000    0.0017   -0.0000
       41 W     11pz       -0.0021   -0.0000   -0.0000   -0.0001    0.0000   -0.0000    0.0011    0.0000    0.0015   -0.0000
       42 W      3d2-      -0.0000    0.0033    0.0000    0.0000    0.0002   -0.0003   -0.0000    0.0000    0.0000    0.0014
       43 W      4d2-      -0.0000    0.5511    0.0016   -0.0000    0.0041   -0.0072   -0.0000    0.0000    0.0000    0.0225
       44 W      5d2-      -0.0000    0.0167    0.0000   -0.0000    0.0082   -0.0147   -0.0000    0.0000   -0.0000    0.0405
       45 W      6d2-       0.0000   -0.0181   -0.0001    0.0000   -0.0055    0.0098    0.0000   -0.0000    0.0000   -0.0217
       46 W      7d2-      -0.0000    0.0165    0.0000   -0.0000    0.0028   -0.0049   -0.0000    0.0000    0.0000    0.0078
       47 W      8d2-       0.0000   -0.0104   -0.0000   -0.0000   -0.0009    0.0016    0.0000   -0.0000   -0.0000   -0.0019
       48 W      9d2-      -0.0000    0.0050    0.0000    0.0000    0.0005   -0.0009   -0.0000    0.0000   -0.0000    0.0016
       49 W     10d2-       0.0000   -0.0010   -0.0000    0.0000   -0.0002    0.0004    0.0000    0.0000   -0.0000   -0.0004
       50 W     11d2-       0.0000   -0.0022   -0.0000    0.0000   -0.0002    0.0004    0.0000   -0.0000   -0.0000   -0.0003
       51 W      3d1-      -0.0000    0.0048    0.0000   -0.0000    0.0003   -0.0006   -0.0000    0.0000   -0.0000   -0.0003
       52 W      4d1-      -0.0000    0.8212    0.0024    0.0000    0.0069   -0.0124   -0.0000    0.0000   -0.0000   -0.0034
       53 W      5d1-      -0.0000    0.0246    0.0001    0.0000    0.0205   -0.0367   -0.0000    0.0000   -0.0000    0.0264
       54 W      6d1-       0.0000   -0.0265   -0.0001   -0.0000   -0.0131    0.0235    0.0000   -0.0000    0.0000   -0.0125
       55 W      7d1-      -0.0000    0.0240    0.0001    0.0000    0.0058   -0.0104   -0.0000    0.0000    0.0000    0.0030
       56 W      8d1-       0.0000   -0.0150   -0.0000    0.0000   -0.0010    0.0019    0.0000   -0.0000   -0.0000    0.0001
       57 W      9d1-      -0.0000    0.0072    0.0000   -0.0000    0.0006   -0.0010   -0.0000    0.0000   -0.0000    0.0004
       58 W     10d1-       0.0000   -0.0013   -0.0000   -0.0000   -0.0004    0.0006    0.0000   -0.0000   -0.0000   -0.0001
       59 W     11d1-       0.0000   -0.0029   -0.0000   -0.0000   -0.0003    0.0006    0.0000    0.0000   -0.0000   -0.0002
       60 W      3d0        0.0056    0.0000    0.0000   -0.0005   -0.0000    0.0000   -0.0006   -0.0000   -0.0022    0.0000
       61 W      4d0        0.9948    0.0000    0.0000   -0.0106   -0.0000    0.0000   -0.0118   -0.0000   -0.0415    0.0000
       62 W      5d0        0.0269    0.0000    0.0000   -0.0053    0.0000    0.0000   -0.0015   -0.0000   -0.1098    0.0000
       63 W      6d0       -0.0292   -0.0000   -0.0000    0.0050   -0.0000   -0.0000    0.0024    0.0000    0.0583   -0.0000
       64 W      7d0        0.0267    0.0000    0.0000   -0.0041    0.0000    0.0000   -0.0034    0.0000   -0.0203    0.0000
       65 W      8d0       -0.0168   -0.0000   -0.0000    0.0024    0.0000   -0.0000    0.0032   -0.0000    0.0044    0.0000
       66 W      9d0        0.0081    0.0000    0.0000   -0.0013   -0.0000    0.0000   -0.0018   -0.0000   -0.0040    0.0000
       67 W     10d0       -0.0015   -0.0000   -0.0000    0.0005   -0.0000   -0.0000    0.0005   -0.0000    0.0012   -0.0000
       68 W     11d0       -0.0031   -0.0000   -0.0000    0.0003    0.0000   -0.0000    0.0006   -0.0000    0.0011   -0.0000
       69 W      3d1+      -0.0000   -0.0000    0.0048   -0.0000   -0.0006   -0.0003    0.0000   -0.0000   -0.0000   -0.0000
       70 W      4d1+      -0.0000   -0.0024    0.8212   -0.0000   -0.0124   -0.0069    0.0000   -0.0000   -0.0000   -0.0004
       71 W      5d1+      -0.0000   -0.0001    0.0246   -0.0000   -0.0367   -0.0205    0.0000    0.0000    0.0000    0.0031
       72 W      6d1+       0.0000    0.0001   -0.0265    0.0000    0.0235    0.0131   -0.0000    0.0000   -0.0000   -0.0015
       73 W      7d1+      -0.0000   -0.0001    0.0240   -0.0000   -0.0104   -0.0058    0.0000   -0.0000    0.0000    0.0003
       74 W      8d1+       0.0000    0.0000   -0.0150    0.0000    0.0019    0.0010   -0.0000   -0.0000    0.0000    0.0000
       75 W      9d1+      -0.0000   -0.0000    0.0072   -0.0000   -0.0010   -0.0006    0.0000   -0.0000    0.0000    0.0000
       76 W     10d1+       0.0000    0.0000   -0.0013    0.0000    0.0006    0.0004   -0.0000    0.0000   -0.0000   -0.0000
       77 W     11d1+       0.0000    0.0000   -0.0029   -0.0000    0.0006    0.0003   -0.0000    0.0000    0.0000   -0.0000
       78 W      3d2+       0.0000    0.0000   -0.0033   -0.0000    0.0003    0.0002   -0.0000    0.0000   -0.0000   -0.0002
       79 W      4d2+       0.0000    0.0016   -0.5511   -0.0000    0.0072    0.0041   -0.0000    0.0000   -0.0000   -0.0026
       80 W      5d2+       0.0000    0.0000   -0.0167   -0.0000    0.0147    0.0082   -0.0000    0.0000   -0.0000   -0.0047
       81 W      6d2+      -0.0000   -0.0001    0.0181    0.0000   -0.0098   -0.0055    0.0000   -0.0000    0.0000    0.0025
       82 W      7d2+       0.0000    0.0000   -0.0165   -0.0000    0.0049    0.0028    0.0000    0.0000   -0.0000   -0.0009
       83 W      8d2+      -0.0000   -0.0000    0.0104    0.0000   -0.0016   -0.0009   -0.0000   -0.0000    0.0000    0.0002
       84 W      9d2+       0.0000    0.0000   -0.0050   -0.0000    0.0009    0.0005    0.0000    0.0000   -0.0000   -0.0002
       85 W     10d2+      -0.0000   -0.0000    0.0010    0.0000   -0.0004   -0.0002    0.0000   -0.0000    0.0000    0.0001
       86 W     11d2+      -0.0000   -0.0000    0.0022    0.0000   -0.0004   -0.0002   -0.0000   -0.0000   -0.0000    0.0000
       87 W      4f3-      -0.0000    0.0000    0.0000    0.0000    0.0000   -0.0000    0.0000    0.9949   -0.0000   -0.0000
       88 W      5f3-      -0.0000   -0.0000    0.0000    0.0000    0.0000    0.0000    0.0000    0.0972    0.0000   -0.0000
[...]
      *                                                                                                  *
      *                                    Special properties section                                    *
      *                                                                                                  *
      ****************************************************************************************************


++ Dipole transition strengths (SO states):
   ----------------------------------------
    for osc. strength at least    1.0000000000000001E-005

      From   To        Osc. strength     Einstein coefficients Ax, Ay, Az (sec-1)    Total A (sec-1)
     -----------------------------------------------------------------------------------------------
         1    5       1.73306767E-04  1.20159385E+00  3.13904439E+03  3.31340579E-13  3.14024598E+03
         1    7       1.62321433E-03  9.32057823E+01  2.25781497E+05  9.14020020E+01  2.25966105E+05
         1    9       3.47788355E-03  2.25784314E+05  9.32087967E+01  2.58278443E+05  4.84155966E+05
         1   11       3.41145465E-02  2.92113975E+02  3.25647783E+07  4.77936125E+04  3.26128640E+07
         1   13       6.22109120E-02  3.25638213E+07  2.91995463E+02  2.69083562E+07  5.94724695E+07
         1   15       2.92034620E-02  1.07852399E+04  2.81745794E+07  7.39573267E-06  2.81853646E+07
         2    6       1.73306767E-04  1.20159385E+00  3.13904439E+03  3.31340579E-13  3.14024598E+03
         2    8       1.62321433E-03  9.32057823E+01  2.25781497E+05  9.14020020E+01  2.25966105E+05
         2   10       3.47788355E-03  2.25784314E+05  9.32087967E+01  2.58278443E+05  4.84155966E+05
         2   12       3.41145465E-02  2.92113975E+02  3.25647783E+07  4.77936125E+04  3.26128640E+07
         2   14       6.22109120E-02  3.25638213E+07  2.91995463E+02  2.69083562E+07  5.94724695E+07
         2   16       2.92034620E-02  1.07852399E+04  2.81745794E+07  7.39573267E-06  2.81853646E+07
         3    5       1.73307206E-04  3.13903914E+03  1.20158742E+00  8.08120649E-09  3.14024073E+03
         3    7       3.47785365E-03  2.25780417E+05  9.32065962E+01  2.58274302E+05  4.84147925E+05
         3    9       1.62322403E-03  9.32076253E+01  2.25783969E+05  9.14030282E+01  2.25968580E+05
         3   11       6.22099262E-02  3.25628911E+07  2.91972067E+02  2.69083003E+07  5.94714834E+07
         3   13       3.41135740E-02  2.92028315E+02  3.25638349E+07  4.77935433E+04  3.26119205E+07
         3   15       2.92054235E-02  2.81764562E+07  1.07853162E+04  7.35006172E-03  2.81872415E+07
         4    6       1.73307206E-04  3.13903914E+03  1.20158742E+00  8.08120649E-09  3.14024073E+03
         4    8       3.47785365E-03  2.25780417E+05  9.32065962E+01  2.58274302E+05  4.84147925E+05
         4   10       1.62322403E-03  9.32076253E+01  2.25783969E+05  9.14030282E+01  2.25968580E+05
         4   12       6.22099262E-02  3.25628911E+07  2.91972067E+02  2.69083003E+07  5.94714834E+07
         4   14       3.41135740E-02  2.92028315E+02  3.25638349E+07  4.77935433E+04  3.26119205E+07
         4   16       2.92054235E-02  2.81764562E+07  1.07853162E+04  7.35006172E-03  2.81872415E+07
         5    7       5.69346158E-04  3.23852053E+04  1.83457253E-02  1.61555880E-07  3.23852236E+04
         5    9       5.69353482E-04  1.83450551E-02  3.23859509E+04  1.20248007E-10  3.23859692E+04
         5   11       2.17955621E-02  1.54860330E+07  7.88237854E+03  1.63897983E-02  1.54939153E+07
         5   13       2.17956667E-02  7.88233606E+03  1.54861101E+07  1.56199355E-08  1.54939924E+07
         5   15       8.02262045E-02  5.04396163E-03  2.38485314E-06  5.76644921E+07  5.76644921E+07
         5   17       1.25857312E-02  2.68568659E-05  7.62142458E-09  3.81654177E+07  3.81654177E+07
         6    8       5.69346158E-04  3.23852053E+04  1.83457253E-02  1.61555880E-07  3.23852236E+04
         6   10       5.69353482E-04  1.83450551E-02  3.23859509E+04  1.20248007E-10  3.23859692E+04
         6   12       2.17955621E-02  1.54860330E+07  7.88237854E+03  1.63897983E-02  1.54939153E+07
         6   14       2.17956667E-02  7.88233606E+03  1.54861101E+07  1.56199355E-08  1.54939924E+07
         6   16       8.02262045E-02  5.04396163E-03  2.38485314E-06  5.76644921E+07  5.76644921E+07
         6   18       1.25857312E-02  2.68568659E-05  7.62142458E-09  3.81654177E+07  3.81654177E+07
         7   11       5.11628405E-02  8.35814954E+06  3.97484931E+03  1.03422035E+07  1.87043278E+07
         7   13       2.28876775E-02  3.97488288E+03  8.35777982E+06  5.62142746E+03  8.36737613E+06
         7   15       3.13697178E-02  1.16461582E+07  6.59235163E+00  3.20198954E-03  1.16461648E+07
         7   17       1.25740860E-02  2.84008250E+07  1.60877499E+01  1.05469134E-04  2.84008411E+07
         8   12       5.11628405E-02  8.35814954E+06  3.97484931E+03  1.03422035E+07  1.87043278E+07
         8   14       2.28876775E-02  3.97488288E+03  8.35777982E+06  5.62142746E+03  8.36737613E+06
         8   16       3.13697178E-02  1.16461582E+07  6.59235163E+00  3.20198954E-03  1.16461648E+07
         8   18       1.25740860E-02  2.84008250E+07  1.60877499E+01  1.05469134E-04  2.84008411E+07
         9   11       2.28869220E-02  3.97483091E+03  8.35746811E+06  5.62138032E+03  8.36706432E+06
         9   13       5.11618221E-02  8.35777645E+06  3.97484529E+03  1.03421340E+07  1.87038853E+07
         9   15       3.13713386E-02  6.60231722E+00  1.16467137E+07  1.58461689E-06  1.16467203E+07
         9   17       1.25741067E-02  1.60885604E+01  2.84008262E+07  1.38809259E-08  2.84008422E+07
        10   12       2.28869220E-02  3.97483091E+03  8.35746811E+06  5.62138032E+03  8.36706432E+06
        10   14       5.11618221E-02  8.35777645E+06  3.97484529E+03  1.03421340E+07  1.87038853E+07
        10   16       3.13713386E-02  6.60231722E+00  1.16467137E+07  1.58461689E-06  1.16467203E+07
        10   18       1.25741067E-02  1.60885604E+01  2.84008262E+07  1.38809259E-08  2.84008422E+07
        11   17       1.95020767E-01  1.57274820E+08  8.00525521E+04  2.50205356E-02  1.57354873E+08
        12   18       1.95020767E-01  1.57274820E+08  8.00525521E+04  2.50205356E-02  1.57354873E+08
        13   17       1.95021024E-01  8.00522280E+04  1.57275001E+08  8.52049231E-09  1.57355053E+08
        14   18       1.95021024E-01  8.00522280E+04  1.57275001E+08  8.52049231E-09  1.57355053E+08
        15   17       1.27368133E-01  3.99497090E-02  1.77137920E-05  1.01702409E+08  1.01702409E+08
        16   18       1.27368133E-01  3.99497090E-02  1.77137920E-05  1.01702409E+08  1.01702409E+08
     -----------------------------------------------------------------------------------------------
--

++ Velocity transition strengths (SO states):
   ------------------------------------------
    for osc. strength at least    1.0000000000000001E-005

      From   To        Osc. strength     Einstein coefficients Ax, Ay, Az (sec-1)    Total A (sec-1)
     -----------------------------------------------------------------------------------------------
         1    5       8.62394299E-05  5.97934665E-01  1.56202982E+03  1.22944150E-12  1.56262776E+03
         1    7       1.49398235E-03  8.57972380E+01  2.07835313E+05  5.54583317E+01  2.07976569E+05
         1    9       2.61931357E-03  2.07838155E+05  8.58005214E+01  1.56711801E+05  3.64635756E+05
         1   11       3.53691007E-02  3.02856045E+02  3.37619326E+07  5.00763004E+04  3.38123117E+07
         1   13       6.48073054E-02  3.37609370E+07  3.02728361E+02  2.81935486E+07  6.19547884E+07
         1   15       3.06653161E-02  1.13251507E+04  2.95850331E+07  7.27704775E-06  2.95963582E+07
         2    6       8.62394299E-05  5.97934665E-01  1.56202982E+03  1.22944150E-12  1.56262776E+03
         2    8       1.49398235E-03  8.57972380E+01  2.07835313E+05  5.54583317E+01  2.07976569E+05
         2   10       2.61931357E-03  2.07838155E+05  8.58005214E+01  1.56711801E+05  3.64635756E+05
         2   12       3.53691007E-02  3.02856045E+02  3.37619326E+07  5.00763004E+04  3.38123117E+07
         2   14       6.48073054E-02  3.37609370E+07  3.02728361E+02  2.81935486E+07  6.19547884E+07
         2   16       3.06653161E-02  1.13251507E+04  2.95850331E+07  7.27704775E-06  2.95963582E+07
         3    5       8.62397814E-05  1.56202963E+03  5.97920869E-01  1.36182153E-08  1.56262755E+03
         3    7       2.61928725E-03  2.07834683E+05  8.57982264E+01  1.56708691E+05  3.64629172E+05
         3    9       1.49399592E-03  8.57991271E+01  2.07838234E+05  5.54593710E+01  2.07979493E+05
         3   11       6.48062693E-02  3.37599622E+07  3.02704250E+02  2.81934875E+07  6.19537525E+07
         3   13       3.53680919E-02  3.02763347E+02  3.37609540E+07  5.00762686E+04  3.38113330E+07
         3   15       3.06673640E-02  2.95869924E+07  1.13252494E+04  7.67157609E-03  2.95983177E+07
         4    6       8.62397814E-05  1.56202963E+03  5.97920869E-01  1.36182153E-08  1.56262755E+03
         4    8       2.61928725E-03  2.07834683E+05  8.57982264E+01  1.56708691E+05  3.64629172E+05
         4   10       1.49399592E-03  8.57991271E+01  2.07838234E+05  5.54593710E+01  2.07979493E+05
         4   12       6.48062693E-02  3.37599622E+07  3.02704250E+02  2.81934875E+07  6.19537525E+07
         4   14       3.53680919E-02  3.02763347E+02  3.37609540E+07  5.00762686E+04  3.38113330E+07
         4   16       3.06673640E-02  2.95869924E+07  1.13252494E+04  7.67157609E-03  2.95983177E+07
         5    7       8.14482123E-04  4.63290427E+04  2.62483370E-02  1.41664444E-07  4.63290690E+04
         5    9       8.14488804E-04  2.62399552E-02  4.63298934E+04  1.06495537E-10  4.63299196E+04
         5   11       2.33423198E-02  1.65850822E+07  8.44178854E+03  1.77839708E-02  1.65935240E+07
         5   13       2.33424351E-02  8.44175469E+03  1.65851673E+07  2.62255940E-08  1.65936090E+07
         5   15       8.73784301E-02  5.40242297E-03  2.58652000E-06  6.28055427E+07  6.28055427E+07
         5   17       1.05353887E-02  2.50782344E-05  8.37308289E-09  3.19479976E+07  3.19479976E+07
         6    8       8.14482123E-04  4.63290427E+04  2.62483370E-02  1.41664444E-07  4.63290690E+04
         6   10       8.14488804E-04  2.62399552E-02  4.63298934E+04  1.06495537E-10  4.63299196E+04
         6   12       2.33423198E-02  1.65850822E+07  8.44178854E+03  1.77839708E-02  1.65935240E+07
         6   14       2.33424351E-02  8.44175469E+03  1.65851673E+07  2.62255940E-08  1.65936090E+07
         6   16       8.73784301E-02  5.40242297E-03  2.58652000E-06  6.28055427E+07  6.28055427E+07
         6   18       1.05353887E-02  2.50782344E-05  8.37308289E-09  3.19479976E+07  3.19479976E+07
         7   11       5.80329613E-02  9.44901543E+06  4.49363264E+03  1.17625004E+07  2.12160095E+07
         7   13       2.58749203E-02  4.49367392E+03  9.44861107E+06  6.39342335E+03  9.45949817E+06
         7   15       3.43795633E-02  1.27636222E+07  7.22474047E+00  3.71447146E-03  1.27636295E+07
         7   17       1.21050133E-02  2.73414355E+07  1.54876185E+01  9.28326104E-05  2.73414510E+07
         8   12       5.80329613E-02  9.44901543E+06  4.49363264E+03  1.17625004E+07  2.12160095E+07
         8   14       2.58749203E-02  4.49367392E+03  9.44861107E+06  6.39342335E+03  9.45949817E+06
         8   16       3.43795633E-02  1.27636222E+07  7.22474047E+00  3.71447146E-03  1.27636295E+07
         8   18       1.21050133E-02  2.73414355E+07  1.54876185E+01  9.28326104E-05  2.73414510E+07
         9   11       2.58740708E-02  4.49360850E+03  9.44826034E+06  6.39336430E+03  9.45914732E+06
         9   13       5.80318563E-02  9.44860561E+06  4.49362786E+03  1.17624265E+07  2.12155258E+07
         9   15       3.43813741E-02  7.23598070E+00  1.27642437E+07  1.89187495E-06  1.27642510E+07
         9   17       1.21050379E-02  1.54884805E+01  2.73414470E+07  9.33921792E-09  2.73414625E+07
        10   12       2.58740708E-02  4.49360850E+03  9.44826034E+06  6.39336430E+03  9.45914732E+06
        10   14       5.80318563E-02  9.44860561E+06  4.49362786E+03  1.17624265E+07  2.12155258E+07
        10   16       3.43813741E-02  7.23598070E+00  1.27642437E+07  1.89187495E-06  1.27642510E+07
        10   18       1.21050379E-02  1.54884805E+01  2.73414470E+07  9.33921792E-09  2.73414625E+07
        11   15       8.73457520E-04  1.90506944E+01  9.69711121E-03  4.95826756E-09  1.90603915E+01
        11   17       2.27316921E-01  1.83320744E+08  9.33098380E+04  3.24698912E-02  1.83414054E+08
        12   16       8.73457520E-04  1.90506944E+01  9.69711121E-03  4.95826756E-09  1.90603915E+01
        12   18       2.27316921E-01  1.83320744E+08  9.33098380E+04  3.24698912E-02  1.83414054E+08
        13   15       8.73487404E-04  9.69637971E-03  1.90507309E+01  9.95543528E-13  1.90604273E+01
        13   17       2.27317156E-01  9.33095031E+04  1.83320904E+08  4.75081943E-09  1.83414213E+08
        14   16       8.73487404E-04  9.69637971E-03  1.90507309E+01  9.95543528E-13  1.90604273E+01
        14   18       2.27317156E-01  9.33095031E+04  1.83320904E+08  4.75081943E-09  1.83414213E+08
        15   17       1.64515360E-01  4.64915682E-02  2.07692596E-05  1.31364621E+08  1.31364621E+08
        16   18       1.64515360E-01  4.64915682E-02  2.07692596E-05  1.31364621E+08  1.31364621E+08
     -----------------------------------------------------------------------------------------------
--

++ Length and velocity gauge comparison (SO states):

 --------------------------------------------------
 A comparison between the dipole oscillator strengths in 
 length and velocity gauge will be performed

 All dipole oscillator differences above the tolerance of   0.10000000000000001       will be printed 

 Due to basis set deficiency these oscillator may be problematic 

 The tolerance is defined as ABS(1-O_l/O_v) 
 O_l : dipole oscillator strength in length gauge
 O_p : dipole oscillator strength in velocity gauge
 --------------------------------------------------

  Problematic transitions have been found

      From   To       Difference (%) Osc. st. (len.) Osc. st. (vel.)
     ---------------------------------------------------------------
         1    5           100.960010  1.73306767E-04  8.62394299E-05
         1    9            32.778435  3.47788355E-03  2.61931357E-03
         2    6           100.960010  1.73306767E-04  8.62394299E-05
         2   10            32.778435  3.47788355E-03  2.61931357E-03
         3    5           100.959700  1.73307206E-04  8.62397814E-05
         3    7            32.778627  3.47785365E-03  2.61928725E-03
         4    6           100.959700  1.73307206E-04  8.62397814E-05
         4    8            32.778627  3.47785365E-03  2.61928725E-03
         5    7            30.097157  5.69346158E-04  8.14482123E-04
         5    9            30.096831  5.69353482E-04  8.14488804E-04
         5   17            19.461479  1.25857312E-02  1.05353887E-02
         6    8            30.097157  5.69346158E-04  8.14482123E-04
         6   10            30.096831  5.69353482E-04  8.14488804E-04
         6   18            19.461479  1.25857312E-02  1.05353887E-02
         7   11            11.838308  5.11628405E-02  5.80329613E-02
         7   13            11.544935  2.28876775E-02  2.58749203E-02
         8   12            11.838308  5.11628405E-02  5.80329613E-02
         8   14            11.544935  2.28876775E-02  2.58749203E-02
         9   11            11.544951  2.28869220E-02  2.58740708E-02
         9   13            11.838384  5.11618221E-02  5.80318563E-02
        10   12            11.544951  2.28869220E-02  2.58740708E-02
        10   14            11.838384  5.11618221E-02  5.80318563E-02
        11   15      --------------- below threshold  8.73457520E-04
        11   17            14.207545  1.95020767E-01  2.27316921E-01
        12   16      --------------- below threshold  8.73457520E-04
        12   18            14.207545  1.95020767E-01  2.27316921E-01
        13   15      --------------- below threshold  8.73487404E-04
        13   17            14.207521  1.95021024E-01  2.27317156E-01
        14   16      --------------- below threshold  8.73487404E-04
        14   18            14.207521  1.95021024E-01  2.27317156E-01
        15   17            22.579792  1.27368133E-01  1.64515360E-01
        16   18            22.579792  1.27368133E-01  1.64515360E-01
     ---------------------------------------------------------------

 Number of problematic transitions =                    32

--

 Electric-dipole - electric-octupole not included
++ I/O STATISTICS
 
  I. General I/O information
  - - - - - - - - - - - - - - - - - - - - - - - - - - - - - - - - - - - - - - - - - - -
  Unit  Name          Flsize      Write/Read            MBytes           Write/Read
                      (MBytes)       Calls              In/Out           Time, sec.
  - - - - - - - - - - - - - - - - - - - - - - - - - - - - - - - - - - - - - - - - - - -
   1  SCRATCH           0.00 .       9/      45 .      0.0/      0.0 .       0/       0
   2  ANNI              0.00 .       0/       0 .      0.0/      0.0 .       0/       0
   3  RUNFILE          15.28 .     322/   10733 .      2.3/     77.8 .       0/       0
   4  ONEINT            6.58 .       0/   28767 .      0.0/   3777.9 .       0/       0
   5  JOBIPH            7.71 .       0/      92 .      0.0/      0.9 .       0/       0
   6  ORDINT          771.03 .       1/    6169 .      0.0/   1542.0 .       0/       0
  - - - - - - - - - - - - - - - - - - - - - - - - - - - - - - - - - - - - - - - - - - -
   *  TOTAL           800.61 .     332/   45806 .      2.3/   5398.7 .       0/       0
  - - - - - - - - - - - - - - - - - - - - - - - - - - - - - - - - - - - - - - - - - - -
 
  II. I/O Access Patterns
  - - - - - - - - - - - - - - - - - - - -
  Unit  Name               % of random
                         Write/Read calls
  - - - - - - - - - - - - - - - - - - - -
   1  SCRATCH             88.9/ 100.0
   2  ANNI                 0.0/   0.0
   3  RUNFILE             28.6/  10.8
   4  ONEINT               0.0/  13.4
   5  JOBIPH               0.0/  76.1
   6  ORDINT             100.0/   0.0
  - - - - - - - - - - - - - - - - - - - -
--
--- Stop Module: rassi at Thu Jan  9 20:25:52 2025 /rc=_RC_ALL_IS_WELL_ ---
*** files: xmldump
    saved to directory /home4/s4752295/Internship/Initial_simulations/Point_charge_model/1_electron/active_space_9_non_rel/W/varying_bond_length
--- Module rassi spent 4 seconds ---

.##################.
.# Happy landing! #.
.##################.

    Timing: Wall=142.68 User=113.95 System=24.73

###############################################################################
Hbrk Cluster
Job 14548092 for user s4752295
Finished at: Thu Jan  9 20:25:52 CET 2025

Job details:
============

Job ID                         : 14548092
Name                           : W_no_c_light
User                           : s4752295
Partition                      : regularmedium
Nodes                          : node99
Number of Nodes                : 1
Cores                          : 1
Number of Tasks                : 1
State                          : RUNNING  
Submit                         : 2025-01-09T20:23:24
Start                          : 2025-01-09T20:23:25
End                            : --
Reserved walltime              : 15:00:00
Used walltime                  : 00:02:27
Used CPU time                  : -- 
% User (Computation)           : --
% System (I/O)                 : --
Total memory reserved          : 25000M
Maximum memory used            : --

Acknowledgements:
=================

Please see this page for information about acknowledging Hbrk in your publications:

https://wiki.hpc.rug.nl/habrok/introduction/scientific_output

################################################################################
