   This run of MOLCAS is using the pymolcas driver

                             OPE
                             OPE          NMOL  CASOP  ENMOLC A   SO
                 OPE        NMOLC        AS  OP EN  MO LC     AS  OP
                OPENM       OL CA        SO  PE NM  OL CA     SOP EN
                OP EN      MO   LC       AS  OP ENMOL  CASO   PENMOL
                OP  EN     MO   LC       AS  OP EN     MO     LC ASO
               OP   E  NMOL  C  AS       OP  EN MO     LC     AS  OP
               OP  E   NMO   LC AS        OPEN  MO     LCASOP EN   M
               O  PEN   MO  LCA  SO
            OPE   NMO   L   CAS    OP
        OPENMOL  CASOP     ENMOL   CASOPE
     OPENMOLCA   SOPENMOLCASOPEN   MOLCASOPE
    OPENMOLCAS   OP           EN   MOL    CAS
    OPENMOLCAS       OP  ENM        O     LCA
    OPENMOLCAS    OPEN  MOLCASO     P  E  NMO
    OPENMOLCAS     OP               E  N  MOL
    OPENMOLCA   SO           PENM   O  L  CAS    OPEN    MO    LCAS
    OPENMOLCA   SOP           ENM   O  L  CAS   OP  EN  MOLC  AS   O
    OPENMOLCA   SOPE           NM      O  LCA   S      OP  EN MO
    OPENMOLC                AS         O  PEN   M      OL  CA  SOPE
    OPENMO        LCASOPE  NMOL        C  ASO   P      ENMOLC     AS
    OPE     NMO      LCA  SO     P     E   NM   OL  CA SO  PE N   MO
          OPENMOLCA            SOPE   NMO        LCAS  O    P  ENMO
     OPENMOLCASOPENMOLCASOPENMOLCASOPENMOLCA
        OPENMOLCASOPENMOLCASOPENMOLCASOPE
            OPENMOLCASOPENMOLCASOPENM
               OPENMOLCASOPENMOLCA        version: o91e1abe7de707b ?
                   OPENMOLCASO
                       OPE                tag:

 OpenMolcas is free software; you can redistribute it and/or modify it
 under the terms of the GNU Lesser General Public License version 2.1.
 OpenMolcas is distributed in the hope that it will be useful, but it
 is provided "as is" and without any express or implied warranties.
 For more details see the full text of the license in the file
 LICENSE or in <http://www.gnu.org/licenses/>.

                 Copyright (C) The OpenMolcas Authors
           For the author list and the recommended citation,
                   consult the file CONTRIBUTORS.md

           *************************************************
           * pymolcas version py2.10                       *
           *   build 3068ae8b88c9345ec6cfef6fef7f1169      *
           *   (after the EMIL interpreter by V. Veryazov) *
           *************************************************

configuration info
------------------
Host name: login1 (Linux)
C Compiler ID: GNU
C flags: -std=gnu99
Fortran Compiler ID: GNU
Fortran flags: -fno-aggressive-loop-optimizations -cpp -fdefault-integer-8 -fmax-stack-var-size=1048576
Definitions: _MOLCAS_;_I8_;_LINUX_;_MKL_
Parallel: OFF (GA=OFF)


   ---------------------------------------------------------------------------------------------------------------------------------------------
  |
  |           Project: tungsten_so_cf
  |    Submitted from: /home4/s4752295/Internship/Initial_simulations/Point_charge_model/1_electron/active_space_9_non_rel/W/varying_bond_length
  |      Scratch area: /tmp/tungsten_so_cf
  |   Save outputs to: /home4/s4752295/Internship/Initial_simulations/Point_charge_model/1_electron/active_space_9_non_rel/W/varying_bond_length
  |            Molcas: /home4/s4752295/Internship/Molcas/recomp_try/OpenMolcas-master/build
  |
  | Scratch area is empty
  |
  |    MOLCAS_DRIVER = /home4/s4752295/Internship/Molcas/bin/pymolcas
  |    MOLCAS_NPROCS = 1
  |    MOLCAS_SOURCE = /home4/s4752295/Internship/Molcas/recomp_try/OpenMolcas-master
  | MOLCAS_STRUCTURE = 0
  |
   ---------------------------------------------------------------------------------------------------------------------------------------------

++ ---------   Input file   ---------

&SEWARD
AMFi

CLIG
$R

Basis Set
W.ANO-rcc.Roos.24s21p15d11f4g2h.11s10p9d8f4g2h.
Spherical d
W            0.0        0.0     0.0
End of Basis

Xfield

4
0.000000,  0.0000,  1.134       -1.0
0.982073,  0.0000, -0.567       -1.0
-0.491036,  0.8505, -0.567      -1.0
-0.491036, -0.8505, -0.567      -1.0

End of input

&SCF
Occupied
34
Iterations
   50  100
End of Input

&RASSCF
LumOrb
Symmetry
1
Spin
2
Nactel
1 0 0
CIRoot
9 9 1
inactive
34
ras2
9
End of Input

>>> COPY tungsten_so_cf.JobIph $SLURM_SUBMIT_DIR/tungsten_so_cf.doublet.JobIph

>>> COPY $SLURM_SUBMIT_DIR/tungsten_so_cf.doublet.JobIph ./JOB002

&RASSI
NROFJobIph
1 All
SpinOrbit
End of Input

EOF

-- ----------------------------------

--- Start Module: seward at Fri Jan 10 02:39:29 2025 ---

()()()()()()()()()()()()()()()()()()()()()()()()()()()()()()()()()()()()()()()()()()()()()()()()()()

                                              &SEWARD

                                   only a single process is used
                       available to each process: 4.1 GB of memory, 1 thread?
                                            pid: 1102702
()()()()()()()()()()()()()()()()()()()()()()()()()()()()()()()()()()()()()()()()()()()()()()()()()()

 The speed of LIGHT in this CALCULATION =   137.03599917700001     
               SEWARD will generate:
                  Multipole Moment integrals up to order  2
                  Kinetic Energy integrals
                  Nuclear Attraction integrals (point charge)
                  One-Electron Hamiltonian integrals
                  Velocity integrals
                  Relativistic Douglas-Kroll-Hess integrals:
                    - Parametrization         : EXP
                    - DKH order of Hamiltonian: 2
                    - DKH order of Properties : 0
                         - multipole moment operators
                         - electric potential operators
                         - contact operators
                  External field from     4 point(s) added to the one-electron Hamiltonian
                  Orbital angular momentum around ( 0.0000  0.0000  0.0000 )
                  Velocity quadrupole around ( 0.0000  0.0000  0.0000 )
                  Atomic mean-field integrals
                  Two-Electron Repulsion integrals

                   Integrals are discarded if absolute value <: 0.10E-13
                   Integral cutoff threshold is set to       <: 0.10E-15

++    Symmetry information:
      ---------------------

                    Character Table for C1 

                             E  
                    a        1  x, y, xy, Rz, z, xz, Ry, yz, Rx, I
--


++    Basis set information:
      ----------------------


      Basis set label: W.ANO-RCC.ROOS.24S21P15D11F4G2H.11S10P9D8F4G2H......

      Electronic valence basis set:
      ------------------
      Associated Effective Charge  74.000000 au
      Associated Actual Charge     74.000000 au
      Nuclear Model: Point charge

      Shell  nPrim  nBasis  Cartesian Spherical Contaminant
         s      24      11        X                  
         p      21      10        X                  
         d      15       9                 X         
         f      11       8                 X         
         g       4       4                 X         
         h       2       2                 X         
--


++    Molecular structure info:
      -------------------------

                    ************************************************ 
                    **** Cartesian Coordinates / Bohr, Angstrom **** 
                    ************************************************ 

     Center  Label                x              y              z                     x              y              z
        1      W                0.000000       0.000000       0.000000              0.000000       0.000000       0.000000
--


++    Operator info:
      --------------


  Net charge from external field:   -4.0000000000000000     
--


            Nuclear Potential Energy              0.00000000 au

                    Nuclear-External Field Potential Energy    -261.02293825 au
                    External Field Potential Energy               3.29105025 au 


            Total Nuclear Potential Energy           -261.02293825 au


      Basis set specifications :
      Symmetry species         a  
      Basis functions          200

 Sorry, Molden does not know how to handle
 functions with angular momentum larger than g
Note: The following floating-point exceptions are signalling: IEEE_UNDERFLOW_FLAG IEEE_DENORMAL
--- Stop Module: seward at Fri Jan 10 02:39:48 2025 /rc=_RC_ALL_IS_WELL_ ---
*** files: tungsten_so_cf.GssOrb xmldump
    saved to directory /home4/s4752295/Internship/Initial_simulations/Point_charge_model/1_electron/active_space_9_non_rel/W/varying_bond_length
--- Module seward spent 18 seconds ---

*** symbolic link created: INPORB -> tungsten_so_cf.GssOrb
--- Start Module: scf at Fri Jan 10 02:39:48 2025 ---

()()()()()()()()()()()()()()()()()()()()()()()()()()()()()()()()()()()()()()()()()()()()()()()()()()

                                                &SCF

                                   only a single process is used
                       available to each process: 4.1 GB of memory, 1 thread?
                                            pid: 1103219
()()()()()()()()()()()()()()()()()()()()()()()()()()()()()()()()()()()()()()()()()()()()()()()()()()

++    Input section:
      --------------

      Header of the integral files:
      
       Integrals generated by seward 4.2.0  , Fri Jan 10 02:39:30 2025


      Cartesian coordinates in Angstrom:
      -----------------------------------------------------
      No.  Label        X            Y            Z        
      -----------------------------------------------------
       1   W          0.00000000   0.00000000   0.00000000
      -----------------------------------------------------
      Nuclear repulsion energy = -261.02293825
--

++    Orbital specifications:
      -----------------------

      Symmetry species               1
                                     a
      Frozen orbitals                0
      Occupied orbitals             34
      Secondary orbitals           166
      Deleted orbitals               0
      Total number of orbitals     200
      Number of basis functions    200
--

      Molecular charge                           6.000

++    Optimization specifications:
      ----------------------------

      SCF Algorithm: Conventional
      Minimized density differences are used
      Number of density matrices in core                5
      Maximum number of NDDO SCF iterations            50
      Maximum number of HF SCF iterations             100
      Threshold for SCF energy change            0.10E-08
      Threshold for density matrix               0.10E-03
      Threshold for Fock matrix                  0.15E-03
      Threshold for linear dependence            0.10E-08
      Threshold at which DIIS is turned on       0.15E+00
      Threshold at which QNR/C2DIIS is turned on 0.75E-01
      Threshold for Norm(delta) (QNR/C2DIIS)     0.20E-04
      DIIS extrapolation of the SCF procedure
      All orbitals punched on: SCFORB
--

      Detected guessorb starting orbitals                                             


++ Convergence information
                                   SCF        iterations: Energy and convergence statistics

Iter     Tot. SCF        One-elec.       Two-elec.     Energy      Max Dij or  Max Fij      DNorm      TNorm      AccCon     Time
         Energy          Energy          Energy        Change      Delta Norm                                                in Sec.

 The total and one-electron energies are shifted by a value of     16000. a.u.

   1  -145.032941806 -5677.329592002  5793.319588443   0.00E+00    0.13E+00*   0.26E+00*    0.12E+02   0.15E+04   None         1.
   2  -145.843465587 -5650.932910871  5766.112383531  -0.81E+00*   0.57E-01*   0.70E-01*    0.13E+01   0.15E+04   EDIIS        1.
   3  -145.873425795 -5670.452858713  5785.602371165  -0.30E-01*   0.21E-01*   0.59E-01*    0.37E+00   0.15E+04   EDIIS        1.
   4  -145.873494443 -5647.637327237  5762.786771040  -0.69E-04*   0.60E-02*   0.36E-01*    0.15E+00   0.15E+04   c2DIIS       1.
   5  -145.889964787 -5661.267480380  5776.400453840  -0.16E-01*   0.84E-02*   0.78E-02*    0.38E-01   0.15E+04   QNRc2DIIS    1.
   6  -145.890020093 -5658.176430951  5773.309349104  -0.55E-04*   0.35E-02*   0.93E-02*    0.72E-02   0.15E+04   QNRc2DIIS    1.
   7  -145.890317615 -5659.793245325  5774.925865957  -0.30E-03*   0.13E-02*   0.65E-03*    0.78E-03   0.15E+04   QNRc2DIIS    1.
   8  -145.890322033 -5659.796251107  5774.928867320  -0.44E-05*   0.33E-03*   0.51E-03*    0.25E-03   0.15E+04   QNRc2DIIS    1.
   9  -145.890322991 -5659.800048825  5774.932664080  -0.96E-06*   0.47E-04*   0.16E-04     0.73E-04   0.15E+04   QNRc2DIIS    1.
  10  -145.890322998 -5659.800365643  5774.932980892  -0.61E-08*   0.41E-05    0.43E-05     0.18E-03   0.15E+04   QNRc2DIIS    1.
  11  -145.890322998 -5659.800177066  5774.932792315  -0.10E-09    0.98E-06    0.80E-06     0.31E-03   0.15E+04   QNRc2DIIS    1.

       Convergence after 11 Macro Iterations
--

 *****************************************************************************************************************************
 *                                                                                                                           *
 *                                             SCF/KS-DFT Program, Final results                                             *
 *                                                                                                                           *
 *                                                                                                                           *
 *                                                                                                                           *
 *                                                       Final Results                                                       *
 *                                                                                                                           *
 *****************************************************************************************************************************

::    Total SCF energy                             -16145.8903229976
      One-electron energy                          -21659.8001770663
      Two-electron energy                            5774.9327923152
      Nuclear repulsion energy                       -261.0229382465
      Kinetic energy (interpolated)                 22630.8316277290
      Virial theorem                                    0.7134466196
      Total spin, S(S+1)                                0.0000000000
      Total spin, S                                     0.0000000000
      Max non-diagonal density matrix element           0.0000004806
      Max non-diagonal Fock matrix element              0.0000001285


      All orbitals with orbital energies smaller than  E(LUMO)+0.5 are printed

++    Molecular orbitals:
      -------------------

      Title: SCF orbitals

      Molecular orbitals for symmetry species 1: a  

          Some orbital energies have been scaled by powers of 10, the power is written right after the orbital index


          Orbital            1 (1)     2         3         4         5         6         7         8         9        10    
          Energy         -256.3735 -448.0375 -393.3819 -393.3819 -393.3802 -105.4823  -88.8976  -88.8976  -88.8857  -69.0323
          Occ. No.          2.0000    2.0000    2.0000    2.0000    2.0000    2.0000    2.0000    2.0000    2.0000    2.0000

        1 W      1s         1.0000    0.0000   -0.0000    0.0000   -0.0000   -0.0000   -0.0000    0.0000    0.0000    0.0000
        2 W      2s        -0.0000    1.0000   -0.0000    0.0000   -0.0001    0.0000    0.0000    0.0000   -0.0000   -0.0000
        3 W      3s         0.0000   -0.0000   -0.0000    0.0000    0.0000    1.0000    0.0000    0.0000   -0.0013   -0.0000
        4 W      4s        -0.0000    0.0000    0.0000    0.0000   -0.0000   -0.0002   -0.0000   -0.0000    0.0001    0.0000
        5 W      5s         0.0000   -0.0000   -0.0000   -0.0000    0.0000    0.0001    0.0000   -0.0000   -0.0000   -0.0000
        6 W      6s        -0.0000    0.0000    0.0000    0.0000   -0.0000   -0.0000   -0.0000   -0.0000    0.0000   -0.0000
        7 W      7s         0.0000   -0.0000   -0.0000    0.0000    0.0000    0.0000    0.0000   -0.0000   -0.0000    0.0000
        8 W      8s        -0.0000    0.0000    0.0000   -0.0000   -0.0000   -0.0000   -0.0000    0.0000    0.0000   -0.0000
        9 W      9s         0.0000   -0.0000   -0.0000   -0.0000    0.0000    0.0000    0.0000    0.0000   -0.0000   -0.0000
       10 W     10s        -0.0000    0.0000    0.0000    0.0000   -0.0000   -0.0000   -0.0000   -0.0000    0.0000    0.0000
       11 W     11s         0.0000   -0.0000   -0.0000    0.0000    0.0000    0.0001    0.0000   -0.0000   -0.0000   -0.0000
       12 W      2px        0.0000    0.0000    1.0000   -0.0004    0.0000    0.0000    0.0000    0.0000    0.0000    0.0000
       13 W      3px       -0.0000    0.0000   -0.0000    0.0000   -0.0000    0.0000    1.0000    0.0000    0.0000    0.0003
       14 W      4px       -0.0000   -0.0000    0.0000   -0.0000    0.0000    0.0000   -0.0002   -0.0000   -0.0000   -0.0000
       15 W      5px        0.0000   -0.0000   -0.0000    0.0000   -0.0000    0.0000    0.0001    0.0000    0.0000   -0.0000
       16 W      6px       -0.0000   -0.0000    0.0000   -0.0000    0.0000   -0.0000   -0.0000   -0.0000   -0.0000    0.0000
       17 W      7px        0.0000    0.0000   -0.0000    0.0000   -0.0000    0.0000    0.0001    0.0000    0.0000   -0.0000
       18 W      8px       -0.0000   -0.0000    0.0000   -0.0000    0.0000   -0.0000   -0.0001   -0.0000   -0.0000    0.0000
       19 W      9px        0.0000    0.0000   -0.0000    0.0000   -0.0000    0.0000    0.0001    0.0000    0.0000   -0.0000
       20 W     10px       -0.0000   -0.0000    0.0000   -0.0000    0.0000   -0.0000   -0.0000   -0.0000   -0.0000    0.0000
       21 W     11px        0.0000    0.0000   -0.0000    0.0000   -0.0000    0.0000    0.0000    0.0000    0.0000   -0.0000
       22 W      2py        0.0000    0.0000    0.0004    1.0000    0.0000   -0.0000   -0.0000    0.0000   -0.0000   -0.0000
       23 W      3py       -0.0000   -0.0000   -0.0000   -0.0000   -0.0000   -0.0000   -0.0000    1.0000   -0.0000   -0.0000
       24 W      4py        0.0000    0.0000    0.0000    0.0000    0.0000    0.0000    0.0000   -0.0002    0.0000    0.0000
       25 W      5py       -0.0000   -0.0000   -0.0000   -0.0000   -0.0000    0.0000   -0.0000    0.0001   -0.0000    0.0000
       26 W      6py        0.0000    0.0000    0.0000    0.0000    0.0000    0.0000    0.0000   -0.0000   -0.0000   -0.0000
       27 W      7py       -0.0000   -0.0000   -0.0000   -0.0000   -0.0000   -0.0000   -0.0000    0.0001    0.0000    0.0000
       28 W      8py        0.0000    0.0000    0.0000    0.0000    0.0000    0.0000    0.0000   -0.0001    0.0000   -0.0000
       29 W      9py       -0.0000   -0.0000   -0.0000   -0.0000   -0.0000   -0.0000   -0.0000    0.0001   -0.0000    0.0000
       30 W     10py        0.0000    0.0000    0.0000    0.0000    0.0000    0.0000    0.0000   -0.0000    0.0000   -0.0000
       31 W     11py       -0.0000   -0.0000   -0.0000   -0.0000   -0.0000   -0.0000   -0.0000    0.0000    0.0000    0.0000
       32 W      2pz        0.0000    0.0001   -0.0000   -0.0000    1.0000   -0.0000   -0.0000    0.0000    0.0000    0.0000
       33 W      3pz       -0.0000    0.0000    0.0000    0.0000   -0.0000    0.0013   -0.0000    0.0000    1.0000    0.0000
       34 W      4pz        0.0000   -0.0000   -0.0000   -0.0000    0.0000    0.0001    0.0000   -0.0000   -0.0003   -0.0000
       35 W      5pz       -0.0000    0.0000    0.0000    0.0000   -0.0000   -0.0000   -0.0000   -0.0000    0.0001    0.0000
       36 W      6pz        0.0000   -0.0000   -0.0000   -0.0000    0.0000    0.0000    0.0000   -0.0000   -0.0000   -0.0000
       37 W      7pz       -0.0000    0.0000    0.0000    0.0000   -0.0000   -0.0000   -0.0000   -0.0000    0.0001    0.0000
       38 W      8pz        0.0000   -0.0000   -0.0000   -0.0000    0.0000    0.0000    0.0000    0.0000   -0.0001   -0.0000
       39 W      9pz       -0.0000    0.0000    0.0000    0.0000   -0.0000   -0.0000   -0.0000   -0.0000    0.0001    0.0000
       40 W     10pz        0.0000   -0.0000   -0.0000   -0.0000    0.0000    0.0000    0.0000    0.0000   -0.0001   -0.0000
       41 W     11pz       -0.0000    0.0000    0.0000    0.0000   -0.0000   -0.0000   -0.0000    0.0000    0.0001    0.0000
       42 W      3d2-       0.0000   -0.0000    0.0000    0.0000    0.0000    0.0000   -0.0000    0.0002   -0.0000    0.0000
       43 W      4d2-      -0.0000    0.0000    0.0000    0.0000    0.0000   -0.0000   -0.0000    0.0000   -0.0000   -0.0000
       44 W      5d2-      -0.0000   -0.0000    0.0000    0.0000    0.0000   -0.0000    0.0000   -0.0000    0.0000    0.0000
       45 W      6d2-       0.0000    0.0000   -0.0000   -0.0000   -0.0000    0.0000   -0.0000    0.0000   -0.0000   -0.0000
       46 W      7d2-      -0.0000   -0.0000    0.0000    0.0000    0.0000   -0.0000    0.0000   -0.0000    0.0000    0.0000
       47 W      8d2-       0.0000    0.0000    0.0000    0.0000    0.0000    0.0000   -0.0000    0.0000   -0.0000   -0.0000
       48 W      9d2-      -0.0000   -0.0000   -0.0000   -0.0000   -0.0000   -0.0000    0.0000   -0.0000    0.0000    0.0000
       49 W     10d2-       0.0000    0.0000    0.0000    0.0000    0.0000    0.0000   -0.0000    0.0000   -0.0000   -0.0000
       50 W     11d2-      -0.0000   -0.0000   -0.0000   -0.0000   -0.0000   -0.0000   -0.0000    0.0000   -0.0000    0.0000
       51 W      3d1-      -0.0000   -0.0000    0.0000    0.0000    0.0000   -0.0000   -0.0000    0.0009   -0.0000    0.0000
       52 W      4d1-       0.0000   -0.0000   -0.0000   -0.0000   -0.0000    0.0000   -0.0000    0.0001   -0.0000   -0.0000
       53 W      5d1-      -0.0000   -0.0000    0.0000    0.0000    0.0000    0.0000    0.0000   -0.0000    0.0000    0.0000
       54 W      6d1-       0.0000    0.0000   -0.0000   -0.0000   -0.0000   -0.0000   -0.0000    0.0000   -0.0000   -0.0000
       55 W      7d1-       0.0000   -0.0000    0.0000    0.0000    0.0000    0.0000    0.0000   -0.0000    0.0000    0.0000
       56 W      8d1-      -0.0000    0.0000   -0.0000   -0.0000   -0.0000    0.0000   -0.0000    0.0000   -0.0000   -0.0000
       57 W      9d1-       0.0000    0.0000    0.0000    0.0000    0.0000    0.0000    0.0000   -0.0000    0.0000    0.0000
       58 W     10d1-      -0.0000   -0.0000   -0.0000   -0.0000   -0.0000   -0.0000   -0.0000    0.0000   -0.0000   -0.0000
       59 W     11d1-       0.0000    0.0000   -0.0000   -0.0000   -0.0000    0.0000    0.0000   -0.0000    0.0000    0.0000
       60 W      3d0        0.0000   -0.0000   -0.0000   -0.0000    0.0000   -0.0002   -0.0000    0.0000    0.0006   -0.0000
       61 W      4d0        0.0000    0.0000    0.0000    0.0000   -0.0000   -0.0000   -0.0000    0.0000    0.0001    0.0000
       62 W      5d0        0.0000   -0.0000   -0.0000   -0.0000    0.0000    0.0000    0.0000   -0.0000   -0.0000   -0.0000
       63 W      6d0        0.0000    0.0000    0.0000    0.0000   -0.0000   -0.0000   -0.0000    0.0000    0.0000    0.0000
       64 W      7d0       -0.0000   -0.0000   -0.0000   -0.0000    0.0000    0.0000    0.0000   -0.0000   -0.0000   -0.0000
       65 W      8d0        0.0000    0.0000    0.0000    0.0000   -0.0000   -0.0000   -0.0000    0.0000    0.0000    0.0000
       66 W      9d0       -0.0000   -0.0000   -0.0000   -0.0000    0.0000    0.0000    0.0000   -0.0000   -0.0000   -0.0000
       67 W     10d0        0.0000    0.0000    0.0000    0.0000   -0.0000   -0.0000   -0.0000    0.0000    0.0000    0.0000
       68 W     11d0       -0.0000   -0.0000   -0.0000   -0.0000    0.0000    0.0000    0.0000   -0.0000   -0.0000   -0.0000
       69 W      3d1+       0.0000   -0.0000    0.0000   -0.0000    0.0000   -0.0000    0.0009    0.0000    0.0000   -0.0873
       70 W      4d1+       0.0000    0.0000   -0.0000    0.0000   -0.0000   -0.0000    0.0001    0.0000    0.0000    0.0000
       71 W      5d1+      -0.0000   -0.0000    0.0000   -0.0000    0.0000    0.0000   -0.0000   -0.0000   -0.0000   -0.0000
       72 W      6d1+       0.0000    0.0000   -0.0000    0.0000   -0.0000   -0.0000    0.0000    0.0000    0.0000    0.0000
       73 W      7d1+       0.0000   -0.0000    0.0000   -0.0000    0.0000    0.0000   -0.0000   -0.0000   -0.0000   -0.0000
       74 W      8d1+      -0.0000    0.0000   -0.0000    0.0000   -0.0000   -0.0000    0.0000    0.0000    0.0000    0.0000
       75 W      9d1+      -0.0000   -0.0000    0.0000   -0.0000    0.0000    0.0000   -0.0000   -0.0000   -0.0000   -0.0000
       76 W     10d1+       0.0000    0.0000   -0.0000    0.0000   -0.0000   -0.0000    0.0000    0.0000    0.0000    0.0000
       77 W     11d1+      -0.0000   -0.0000   -0.0000    0.0000    0.0000    0.0000   -0.0000   -0.0000   -0.0000   -0.0000
       78 W      3d2+      -0.0000    0.0000   -0.0000    0.0000   -0.0000    0.0000   -0.0002   -0.0000   -0.0000    0.9962
       79 W      4d2+      -0.0000   -0.0000   -0.0000    0.0000   -0.0000    0.0000   -0.0000   -0.0000   -0.0000   -0.0002
       80 W      5d2+      -0.0000    0.0000   -0.0000    0.0000   -0.0000   -0.0000    0.0000    0.0000    0.0000    0.0001
       81 W      6d2+       0.0000   -0.0000    0.0000   -0.0000    0.0000    0.0000   -0.0000   -0.0000   -0.0000   -0.0001
       82 W      7d2+       0.0000    0.0000   -0.0000    0.0000   -0.0000   -0.0000    0.0000    0.0000    0.0000    0.0001
       83 W      8d2+      -0.0000   -0.0000   -0.0000    0.0000   -0.0000    0.0000   -0.0000   -0.0000   -0.0000   -0.0001
       84 W      9d2+       0.0000    0.0000    0.0000   -0.0000    0.0000   -0.0000    0.0000    0.0000    0.0000    0.0001
       85 W     10d2+      -0.0000   -0.0000   -0.0000    0.0000   -0.0000    0.0000   -0.0000   -0.0000   -0.0000   -0.0001
       86 W     11d2+       0.0000    0.0000    0.0000   -0.0000    0.0000   -0.0000   -0.0000   -0.0000    0.0000    0.0001
       87 W      4f3-      -0.0000   -0.0000    0.0000    0.0000   -0.0000   -0.0000   -0.0000    0.0000    0.0000    0.0000
       88 W      5f3-      -0.0000    0.0000   -0.0000   -0.0000   -0.0000    0.0000    0.0000   -0.0000    0.0000   -0.0000
       89 W      6f3-       0.0000   -0.0000    0.0000    0.0000    0.0000    0.0000   -0.0000    0.0000    0.0000    0.0000
       90 W      7f3-      -0.0000   -0.0000   -0.0000   -0.0000   -0.0000   -0.0000    0.0000   -0.0000    0.0000   -0.0000
       91 W      8f3-       0.0000    0.0000    0.0000    0.0000   -0.0000    0.0000   -0.0000    0.0000   -0.0000   -0.0000
       92 W      9f3-      -0.0000   -0.0000   -0.0000   -0.0000    0.0000   -0.0000    0.0000   -0.0000    0.0000    0.0000
       93 W     10f3-       0.0000    0.0000    0.0000    0.0000   -0.0000    0.0000   -0.0000    0.0000   -0.0000   -0.0000
       94 W     11f3-      -0.0000   -0.0000   -0.0000   -0.0000    0.0000   -0.0000   -0.0000   -0.0000    0.0000    0.0000
       95 W      4f2-       0.0000    0.0000   -0.0000   -0.0000   -0.0000   -0.0000    0.0000   -0.0000    0.0000    0.0000
       96 W      5f2-       0.0000    0.0000    0.0000    0.0000    0.0000   -0.0000   -0.0000    0.0000   -0.0000   -0.0000
       97 W      6f2-       0.0000   -0.0000   -0.0000   -0.0000   -0.0000    0.0000    0.0000   -0.0000    0.0000    0.0000
       98 W      7f2-      -0.0000   -0.0000   -0.0000   -0.0000   -0.0000    0.0000   -0.0000    0.0000   -0.0000   -0.0000
       99 W      8f2-       0.0000    0.0000    0.0000    0.0000    0.0000   -0.0000    0.0000   -0.0000    0.0000    0.0000
      100 W      9f2-      -0.0000   -0.0000   -0.0000   -0.0000   -0.0000    0.0000   -0.0000    0.0000   -0.0000   -0.0000
      101 W     10f2-       0.0000    0.0000    0.0000    0.0000    0.0000   -0.0000    0.0000   -0.0000    0.0000    0.0000
      102 W     11f2-      -0.0000   -0.0000   -0.0000   -0.0000   -0.0000    0.0000   -0.0000    0.0000   -0.0000   -0.0000
      103 W      4f1-       0.0000    0.0000   -0.0000   -0.0000   -0.0000    0.0000    0.0000   -0.0001    0.0000   -0.0000
      104 W      5f1-       0.0000   -0.0000    0.0000    0.0000    0.0000   -0.0000   -0.0000    0.0000   -0.0000    0.0000
      105 W      6f1-       0.0000    0.0000   -0.0000   -0.0000   -0.0000    0.0000    0.0000   -0.0000    0.0000   -0.0000
      106 W      7f1-      -0.0000   -0.0000    0.0000    0.0000    0.0000   -0.0000   -0.0000    0.0000   -0.0000   -0.0000
      107 W      8f1-       0.0000    0.0000   -0.0000   -0.0000   -0.0000    0.0000    0.0000   -0.0000    0.0000    0.0000
      108 W      9f1-      -0.0000    0.0000    0.0000    0.0000    0.0000   -0.0000   -0.0000    0.0000   -0.0000   -0.0000
      109 W     10f1-      -0.0000   -0.0000   -0.0000   -0.0000   -0.0000   -0.0000    0.0000   -0.0000   -0.0000    0.0000
      110 W     11f1-       0.0000    0.0000    0.0000    0.0000    0.0000    0.0000   -0.0000    0.0000    0.0000   -0.0000
      111 W      4f0       -0.0000   -0.0000    0.0000    0.0000   -0.0000   -0.0001    0.0000   -0.0000   -0.0001   -0.0000
      112 W      5f0        0.0000    0.0000   -0.0000   -0.0000    0.0000    0.0000   -0.0000    0.0000    0.0000    0.0000
      113 W      6f0       -0.0000   -0.0000    0.0000    0.0000   -0.0000   -0.0000    0.0000   -0.0000   -0.0000   -0.0000
      114 W      7f0       -0.0000    0.0000   -0.0000   -0.0000    0.0000    0.0000   -0.0000    0.0000    0.0000    0.0000
      115 W      8f0        0.0000   -0.0000    0.0000    0.0000   -0.0000   -0.0000    0.0000   -0.0000   -0.0000   -0.0000
      116 W      9f0       -0.0000    0.0000   -0.0000   -0.0000    0.0000    0.0000   -0.0000    0.0000    0.0000    0.0000
      117 W     10f0        0.0000   -0.0000    0.0000    0.0000   -0.0000   -0.0000    0.0000   -0.0000   -0.0000   -0.0000
      118 W     11f0       -0.0000    0.0000   -0.0000   -0.0000    0.0000   -0.0000   -0.0000   -0.0000    0.0000   -0.0000
      119 W      4f1+       0.0000    0.0000   -0.0000    0.0000   -0.0000    0.0000   -0.0001   -0.0000   -0.0000    0.0000
      120 W      5f1+      -0.0000   -0.0000    0.0000   -0.0000    0.0000   -0.0000    0.0000    0.0000    0.0000   -0.0000
      121 W      6f1+       0.0000    0.0000   -0.0000    0.0000   -0.0000    0.0000   -0.0000   -0.0000   -0.0000    0.0000
      122 W      7f1+      -0.0000   -0.0000    0.0000   -0.0000    0.0000   -0.0000    0.0000    0.0000    0.0000    0.0000
      123 W      8f1+       0.0000    0.0000   -0.0000    0.0000   -0.0000    0.0000   -0.0000   -0.0000   -0.0000   -0.0000
      124 W      9f1+       0.0000   -0.0000    0.0000   -0.0000    0.0000   -0.0000    0.0000    0.0000    0.0000    0.0000
      125 W     10f1+       0.0000    0.0000   -0.0000    0.0000   -0.0000    0.0000   -0.0000   -0.0000   -0.0000   -0.0000
      126 W     11f1+      -0.0000   -0.0000    0.0000   -0.0000    0.0000    0.0000    0.0000    0.0000    0.0000    0.0000
      127 W      4f2+      -0.0000   -0.0000    0.0000   -0.0000    0.0000   -0.0000    0.0000    0.0000    0.0000    0.0002
      128 W      5f2+       0.0000    0.0000   -0.0000    0.0000   -0.0000    0.0000   -0.0000   -0.0000   -0.0000   -0.0001
      129 W      6f2+      -0.0000   -0.0000    0.0000   -0.0000    0.0000   -0.0000    0.0000    0.0000    0.0000    0.0001
      130 W      7f2+       0.0000    0.0000    0.0000   -0.0000   -0.0000    0.0000   -0.0000   -0.0000   -0.0000   -0.0001
      131 W      8f2+       0.0000   -0.0000   -0.0000    0.0000    0.0000   -0.0000    0.0000    0.0000    0.0000    0.0001
      132 W      9f2+      -0.0000    0.0000    0.0000   -0.0000   -0.0000    0.0000   -0.0000   -0.0000   -0.0000   -0.0000
      133 W     10f2+       0.0000   -0.0000   -0.0000    0.0000    0.0000   -0.0000    0.0000    0.0000    0.0000    0.0000
      134 W     11f2+      -0.0000    0.0000    0.0000   -0.0000   -0.0000   -0.0000   -0.0000   -0.0000   -0.0000   -0.0000
      135 W      4f3+      -0.0000   -0.0000    0.0000   -0.0000    0.0000   -0.0000    0.0000    0.0000    0.0000   -0.0000
      136 W      5f3+       0.0000    0.0000   -0.0000    0.0000   -0.0000    0.0000   -0.0000   -0.0000   -0.0000    0.0000
      137 W      6f3+      -0.0000   -0.0000    0.0000   -0.0000    0.0000   -0.0000    0.0000    0.0000    0.0000   -0.0000
      138 W      7f3+      -0.0000    0.0000   -0.0000    0.0000   -0.0000    0.0000   -0.0000   -0.0000   -0.0000    0.0000
      139 W      8f3+       0.0000   -0.0000    0.0000   -0.0000   -0.0000   -0.0000    0.0000    0.0000    0.0000    0.0000
      140 W      9f3+      -0.0000    0.0000   -0.0000    0.0000    0.0000    0.0000   -0.0000   -0.0000   -0.0000   -0.0000
      141 W     10f3+       0.0000   -0.0000    0.0000   -0.0000   -0.0000   -0.0000    0.0000    0.0000    0.0000    0.0000
      142 W     11f3+      -0.0000    0.0000   -0.0000    0.0000    0.0000   -0.0000    0.0000   -0.0000   -0.0000   -0.0000
      143 W      5g4-       0.0000    0.0000   -0.0000   -0.0000   -0.0000   -0.0000    0.0000   -0.0000    0.0000    0.0000
      144 W      6g4-       0.0000    0.0000    0.0000    0.0000    0.0000   -0.0000   -0.0000    0.0000   -0.0000    0.0000
      145 W      7g4-      -0.0000   -0.0000   -0.0000   -0.0000   -0.0000    0.0000    0.0000   -0.0000    0.0000   -0.0000
      146 W      8g4-      -0.0000    0.0000    0.0000    0.0000    0.0000   -0.0000   -0.0000    0.0000   -0.0000    0.0000
      147 W      5g3-      -0.0000   -0.0000   -0.0000   -0.0000    0.0000    0.0000    0.0000   -0.0000   -0.0000    0.0000
      148 W      6g3-      -0.0000   -0.0000    0.0000    0.0000   -0.0000   -0.0000   -0.0000    0.0000    0.0000    0.0000
      149 W      7g3-       0.0000    0.0000   -0.0000   -0.0000    0.0000    0.0000    0.0000   -0.0000   -0.0000   -0.0000
      150 W      8g3-      -0.0000   -0.0000    0.0000    0.0000   -0.0000   -0.0000   -0.0000    0.0000    0.0000    0.0000
      151 W      5g2-       0.0000   -0.0000    0.0000    0.0000    0.0000    0.0000    0.0000   -0.0000    0.0000   -0.0000
      152 W      6g2-      -0.0000    0.0000   -0.0000   -0.0000   -0.0000    0.0000   -0.0000    0.0000   -0.0000    0.0000
      153 W      7g2-       0.0000   -0.0000    0.0000    0.0000    0.0000   -0.0000    0.0000   -0.0000    0.0000   -0.0000
      154 W      8g2-       0.0000    0.0000   -0.0000   -0.0000   -0.0000    0.0000   -0.0000    0.0000   -0.0000    0.0000
      155 W      5g1-       0.0000   -0.0000   -0.0000   -0.0000   -0.0000   -0.0000    0.0000   -0.0000    0.0000    0.0000
      156 W      6g1-       0.0000    0.0000    0.0000    0.0000    0.0000   -0.0000   -0.0000    0.0000   -0.0000    0.0000
      157 W      7g1-       0.0000   -0.0000   -0.0000   -0.0000   -0.0000    0.0000    0.0000   -0.0000    0.0000   -0.0000
      158 W      8g1-      -0.0000    0.0000    0.0000    0.0000    0.0000   -0.0000   -0.0000    0.0000   -0.0000    0.0000
      159 W      5g0        0.0000   -0.0000    0.0000    0.0000   -0.0000    0.0000    0.0000   -0.0000   -0.0000    0.0000
      160 W      6g0       -0.0000    0.0000   -0.0000   -0.0000    0.0000   -0.0000   -0.0000    0.0000    0.0000   -0.0000
      161 W      7g0        0.0000   -0.0000    0.0000    0.0000   -0.0000    0.0000    0.0000   -0.0000   -0.0000    0.0000
      162 W      8g0       -0.0000    0.0000   -0.0000   -0.0000    0.0000    0.0000   -0.0000    0.0000    0.0000   -0.0000
      163 W      5g1+      -0.0000    0.0000   -0.0000    0.0000    0.0000    0.0000   -0.0000   -0.0000   -0.0000   -0.0000
      164 W      6g1+       0.0000   -0.0000    0.0000   -0.0000   -0.0000    0.0000    0.0000    0.0000    0.0000   -0.0000
      165 W      7g1+      -0.0000    0.0000   -0.0000    0.0000    0.0000    0.0000   -0.0000   -0.0000   -0.0000    0.0000
      166 W      8g1+       0.0000   -0.0000    0.0000   -0.0000   -0.0000   -0.0000    0.0000    0.0000    0.0000   -0.0000
      167 W      5g2+      -0.0000    0.0000   -0.0000    0.0000   -0.0000    0.0000    0.0000    0.0000   -0.0000   -0.0000
      168 W      6g2+       0.0000   -0.0000    0.0000   -0.0000    0.0000   -0.0000   -0.0000   -0.0000    0.0000    0.0000
      169 W      7g2+      -0.0000    0.0000   -0.0000    0.0000   -0.0000    0.0000    0.0000    0.0000   -0.0000   -0.0000
      170 W      8g2+       0.0000   -0.0000    0.0000   -0.0000    0.0000   -0.0000   -0.0000   -0.0000    0.0000    0.0000
      171 W      5g3+      -0.0000    0.0000    0.0000    0.0000   -0.0000    0.0000   -0.0000   -0.0000   -0.0000   -0.0000
      172 W      6g3+       0.0000   -0.0000   -0.0000   -0.0000    0.0000   -0.0000    0.0000    0.0000    0.0000    0.0000
      173 W      7g3+      -0.0000    0.0000    0.0000    0.0000   -0.0000    0.0000   -0.0000   -0.0000   -0.0000   -0.0000
      174 W      8g3+       0.0000   -0.0000   -0.0000   -0.0000    0.0000   -0.0000    0.0000    0.0000    0.0000    0.0000
      175 W      5g4+       0.0000   -0.0000   -0.0000    0.0000    0.0000   -0.0000   -0.0000   -0.0000   -0.0000   -0.0000
      176 W      6g4+       0.0000    0.0000    0.0000   -0.0000   -0.0000    0.0000    0.0000    0.0000    0.0000   -0.0000
      177 W      7g4+      -0.0000   -0.0000   -0.0000    0.0000    0.0000   -0.0000   -0.0000   -0.0000   -0.0000    0.0000
      178 W      8g4+      -0.0000    0.0000    0.0000   -0.0000   -0.0000    0.0000    0.0000    0.0000    0.0000   -0.0000
      179 W      6h5-       0.0000   -0.0000   -0.0000   -0.0000    0.0000    0.0000   -0.0000    0.0000   -0.0000   -0.0000
      180 W      7h5-      -0.0000    0.0000    0.0000    0.0000    0.0000    0.0000    0.0000   -0.0000   -0.0000    0.0000
      181 W      6h4-      -0.0000   -0.0000    0.0000    0.0000    0.0000    0.0000   -0.0000    0.0000   -0.0000   -0.0000
      182 W      7h4-      -0.0000    0.0000    0.0000    0.0000    0.0000    0.0000    0.0000   -0.0000    0.0000    0.0000
      183 W      6h3-       0.0000    0.0000    0.0000   -0.0000    0.0000    0.0000    0.0000    0.0000   -0.0000   -0.0000
      184 W      7h3-      -0.0000   -0.0000   -0.0000    0.0000    0.0000   -0.0000    0.0000   -0.0000   -0.0000    0.0000
      185 W      6h2-       0.0000   -0.0000   -0.0000   -0.0000   -0.0000    0.0000   -0.0000    0.0000   -0.0000   -0.0000
      186 W      7h2-      -0.0000    0.0000    0.0000    0.0000    0.0000   -0.0000    0.0000   -0.0000    0.0000    0.0000
      187 W      6h1-       0.0000   -0.0000   -0.0000   -0.0000    0.0000    0.0000   -0.0000    0.0000   -0.0000   -0.0000
      188 W      7h1-      -0.0000    0.0000    0.0000    0.0000    0.0000   -0.0000    0.0000   -0.0000   -0.0000    0.0000
      189 W      6h0        0.0000   -0.0000   -0.0000   -0.0000    0.0000   -0.0000    0.0000   -0.0000   -0.0000    0.0000
      190 W      7h0       -0.0000    0.0000    0.0000    0.0000   -0.0000    0.0000   -0.0000    0.0000    0.0000   -0.0000
      191 W      6h1+      -0.0000    0.0000   -0.0000    0.0000   -0.0000   -0.0000    0.0000    0.0000    0.0000    0.0000
      192 W      7h1+      -0.0000   -0.0000    0.0000   -0.0000    0.0000    0.0000   -0.0000   -0.0000   -0.0000   -0.0000
      193 W      6h2+       0.0000   -0.0000    0.0000   -0.0000    0.0000    0.0000   -0.0000   -0.0000   -0.0000   -0.0000
      194 W      7h2+      -0.0000    0.0000   -0.0000    0.0000   -0.0000   -0.0000    0.0000    0.0000   -0.0000    0.0000
      195 W      6h3+       0.0000   -0.0000   -0.0000    0.0000    0.0000   -0.0000    0.0000    0.0000    0.0000    0.0000
      196 W      7h3+      -0.0000    0.0000    0.0000   -0.0000   -0.0000    0.0000   -0.0000   -0.0000   -0.0000   -0.0000
      197 W      6h4+      -0.0000    0.0000    0.0000   -0.0000    0.0000   -0.0000    0.0000    0.0000    0.0000    0.0000
      198 W      7h4+       0.0000   -0.0000    0.0000   -0.0000    0.0000    0.0000   -0.0000   -0.0000   -0.0000   -0.0000
      199 W      6h5+      -0.0000    0.0000    0.0000   -0.0000    0.0000    0.0000   -0.0000   -0.0000   -0.0000   -0.0000
      200 W      7h5+       0.0000   -0.0000   -0.0000    0.0000   -0.0000   -0.0000    0.0000    0.0000    0.0000    0.0000

          Orbital           11        12        13        14        15        16        17        18        19        20    
          Energy          -69.0323  -69.0265  -69.0265  -69.0254  -22.8862  -17.3233  -17.3233  -17.2746   -9.9846   -9.9846
          Occ. No.          2.0000    2.0000    2.0000    2.0000    2.0000    2.0000    2.0000    2.0000    2.0000    2.0000

        1 W      1s        -0.0000   -0.0000   -0.0000   -0.0000    0.0000    0.0000   -0.0000   -0.0000   -0.0000    0.0000
        2 W      2s         0.0000   -0.0000   -0.0000    0.0000   -0.0000   -0.0000   -0.0000    0.0000   -0.0000    0.0000
        3 W      3s         0.0000   -0.0000   -0.0000    0.0002    0.0002    0.0000   -0.0000   -0.0001    0.0000   -0.0000
        4 W      4s        -0.0000    0.0000    0.0000   -0.0001    1.0000    0.0000   -0.0000   -0.0082    0.0000   -0.0000
        5 W      5s         0.0000   -0.0000   -0.0000    0.0000   -0.0019   -0.0000   -0.0000    0.0014   -0.0000    0.0000
        6 W      6s         0.0000   -0.0000    0.0000    0.0000    0.0003   -0.0000    0.0000   -0.0002    0.0000   -0.0000
        7 W      7s        -0.0000    0.0000    0.0000   -0.0000   -0.0003    0.0000    0.0000    0.0002   -0.0000    0.0000
        8 W      8s         0.0000   -0.0000   -0.0000    0.0000    0.0006   -0.0000   -0.0000   -0.0004    0.0000   -0.0000
        9 W      9s         0.0000   -0.0000   -0.0000    0.0000   -0.0004    0.0000    0.0000    0.0003   -0.0000    0.0000
       10 W     10s        -0.0000    0.0000    0.0000   -0.0000    0.0001   -0.0000    0.0000   -0.0001   -0.0000    0.0000
       11 W     11s         0.0000   -0.0000   -0.0000    0.0000   -0.0000   -0.0000    0.0000    0.0000    0.0000   -0.0000
       12 W      2px       -0.0000   -0.0000    0.0000   -0.0000   -0.0000   -0.0000   -0.0000   -0.0000   -0.0000    0.0000
       13 W      3px       -0.0000   -0.0009    0.0000   -0.0000   -0.0000    0.0002    0.0000    0.0000    0.0000   -0.0000
       14 W      4px        0.0000    0.0001   -0.0000    0.0000    0.0000    0.9999    0.0000    0.0000   -0.0000    0.0002
       15 W      5px        0.0000    0.0000   -0.0000    0.0000   -0.0000   -0.0015   -0.0000   -0.0000    0.0000   -0.0018
       16 W      6px       -0.0000   -0.0000    0.0000   -0.0000   -0.0000    0.0006    0.0000    0.0000   -0.0000    0.0005
       17 W      7px        0.0000    0.0000   -0.0000    0.0000    0.0000   -0.0011   -0.0000   -0.0000    0.0000   -0.0007
       18 W      8px       -0.0000    0.0000   -0.0000    0.0000   -0.0000    0.0005    0.0000    0.0000   -0.0000    0.0002
       19 W      9px        0.0000   -0.0000    0.0000   -0.0000    0.0000   -0.0001   -0.0000   -0.0000   -0.0000    0.0002
       20 W     10px       -0.0000    0.0000   -0.0000    0.0000   -0.0000   -0.0002   -0.0000   -0.0000    0.0000   -0.0002
       21 W     11px        0.0000   -0.0000    0.0000   -0.0000   -0.0000   -0.0001   -0.0000   -0.0000    0.0000   -0.0000
       22 W      2py       -0.0000   -0.0000   -0.0000   -0.0000   -0.0000    0.0000   -0.0000    0.0000   -0.0000   -0.0000
       23 W      3py       -0.0003   -0.0000   -0.0009   -0.0000    0.0000   -0.0000    0.0002   -0.0000    0.0000    0.0000
       24 W      4py        0.0000    0.0000    0.0001    0.0000    0.0000   -0.0000    0.9999   -0.0000   -0.0002   -0.0000
       25 W      5py        0.0000    0.0000    0.0000    0.0000   -0.0000    0.0000   -0.0015    0.0000    0.0018    0.0000
       26 W      6py       -0.0000   -0.0000   -0.0000   -0.0000    0.0000   -0.0000    0.0006   -0.0000   -0.0005   -0.0000
       27 W      7py        0.0000    0.0000    0.0000    0.0000   -0.0000    0.0000   -0.0011   -0.0000    0.0007    0.0000
       28 W      8py       -0.0000    0.0000    0.0000   -0.0000    0.0000   -0.0000    0.0005    0.0000   -0.0002   -0.0000
       29 W      9py        0.0000   -0.0000   -0.0000   -0.0000   -0.0000    0.0000   -0.0001    0.0000   -0.0002   -0.0000
       30 W     10py       -0.0000    0.0000    0.0000    0.0000    0.0000    0.0000   -0.0002   -0.0000    0.0002    0.0000
       31 W     11py        0.0000   -0.0000   -0.0000   -0.0000   -0.0000    0.0000   -0.0001   -0.0000    0.0000    0.0000
       32 W      2pz       -0.0000    0.0000    0.0000   -0.0000    0.0000    0.0000    0.0000   -0.0000   -0.0000   -0.0000
       33 W      3pz       -0.0000    0.0000    0.0000   -0.0006   -0.0001   -0.0000   -0.0000    0.0003    0.0000    0.0000
       34 W      4pz       -0.0000   -0.0000   -0.0000    0.0001    0.0082   -0.0000    0.0000    0.9999    0.0000    0.0000
       35 W      5pz       -0.0000    0.0000    0.0000   -0.0000    0.0003    0.0000   -0.0000   -0.0032    0.0000    0.0000
       36 W      6pz       -0.0000   -0.0000   -0.0000    0.0000   -0.0001   -0.0000   -0.0000    0.0011   -0.0000   -0.0000
       37 W      7pz        0.0000    0.0000    0.0000   -0.0000    0.0002    0.0000   -0.0000   -0.0021    0.0000    0.0000
       38 W      8pz        0.0000   -0.0000   -0.0000    0.0000   -0.0001   -0.0000    0.0000    0.0010    0.0000    0.0000
       39 W      9pz       -0.0000    0.0000    0.0000   -0.0000    0.0000   -0.0000    0.0000   -0.0001   -0.0000   -0.0000
       40 W     10pz        0.0000   -0.0000   -0.0000    0.0000    0.0000    0.0000    0.0000   -0.0003   -0.0000    0.0000
       41 W     11pz        0.0000    0.0000    0.0000   -0.0000    0.0000    0.0000   -0.0000   -0.0001   -0.0000    0.0000
       42 W      3d2-       0.9962   -0.0000   -0.0873   -0.0000    0.0000    0.0000   -0.0000    0.0000    0.0002    0.0000
       43 W      4d2-      -0.0002    0.0000    0.0000    0.0000    0.0000   -0.0000    0.0051   -0.0000    0.8997    0.0000
       44 W      5d2-       0.0001   -0.0000   -0.0000   -0.0000    0.0000   -0.0000    0.0009   -0.0000    0.0000    0.0000
       45 W      6d2-      -0.0001    0.0000    0.0000    0.0000   -0.0000    0.0000   -0.0010    0.0000    0.0004    0.0000
       46 W      7d2-       0.0001   -0.0000   -0.0000   -0.0000    0.0000   -0.0000    0.0009   -0.0000   -0.0009   -0.0000
       47 W      8d2-      -0.0001    0.0000    0.0000    0.0000   -0.0000    0.0000   -0.0005   -0.0000    0.0008    0.0000
       48 W      9d2-       0.0001   -0.0000   -0.0000   -0.0000    0.0000   -0.0000    0.0001    0.0000   -0.0002   -0.0000
       49 W     10d2-      -0.0001   -0.0000   -0.0000    0.0000   -0.0000   -0.0000    0.0002    0.0000   -0.0001   -0.0000
       50 W     11d2-       0.0001    0.0000    0.0000    0.0000   -0.0000   -0.0000    0.0001   -0.0000   -0.0001   -0.0000
       51 W      3d1-       0.0873    0.0000    0.9962    0.0000   -0.0000    0.0000   -0.0001    0.0000   -0.0001   -0.0000
       52 W      4d1-      -0.0000   -0.0000   -0.0003   -0.0000    0.0000   -0.0000    0.0099   -0.0000   -0.4364   -0.0000
       53 W      5d1-       0.0000    0.0000    0.0001    0.0000    0.0000   -0.0000    0.0010   -0.0000   -0.0009   -0.0000
       54 W      6d1-      -0.0000   -0.0000   -0.0001   -0.0000   -0.0000    0.0000   -0.0012    0.0000    0.0008    0.0000
       55 W      7d1-       0.0000    0.0000    0.0001    0.0000    0.0000   -0.0000    0.0011   -0.0000   -0.0004   -0.0000
       56 W      8d1-      -0.0000   -0.0000   -0.0001   -0.0000   -0.0000    0.0000   -0.0007    0.0000   -0.0001   -0.0000
       57 W      9d1-       0.0000    0.0000    0.0001    0.0000    0.0000   -0.0000    0.0002    0.0000    0.0002    0.0000
       58 W     10d1-      -0.0000   -0.0000   -0.0001   -0.0000   -0.0000   -0.0000    0.0002   -0.0000   -0.0001   -0.0000
       59 W     11d1-       0.0000    0.0000    0.0001    0.0000    0.0000   -0.0000    0.0001   -0.0000    0.0000    0.0000
       60 W      3d0        0.0000   -0.0000   -0.0000    1.0000    0.0001    0.0000    0.0000   -0.0001    0.0000   -0.0000
       61 W      4d0       -0.0000    0.0000    0.0000   -0.0003   -0.0027    0.0000   -0.0000   -0.0024    0.0000   -0.0000
       62 W      5d0        0.0000   -0.0000   -0.0000    0.0001   -0.0002    0.0000    0.0000   -0.0012   -0.0000    0.0000
       63 W      6d0       -0.0000    0.0000    0.0000   -0.0001    0.0003   -0.0000   -0.0000    0.0014    0.0000   -0.0000
       64 W      7d0        0.0000   -0.0000   -0.0000    0.0001   -0.0003    0.0000   -0.0000   -0.0013   -0.0000    0.0000
       65 W      8d0       -0.0000    0.0000    0.0000   -0.0001    0.0002   -0.0000    0.0000    0.0007    0.0000   -0.0000
       66 W      9d0        0.0000   -0.0000   -0.0000    0.0001   -0.0001   -0.0000   -0.0000   -0.0001    0.0000   -0.0000
       67 W     10d0       -0.0000    0.0000    0.0000   -0.0001   -0.0000    0.0000   -0.0000   -0.0003   -0.0000    0.0000
       68 W     11d0        0.0000   -0.0000   -0.0000    0.0001   -0.0000    0.0000    0.0000   -0.0000   -0.0000    0.0000
       69 W      3d1+       0.0000    0.9962   -0.0000    0.0000    0.0000   -0.0001   -0.0000   -0.0000   -0.0000    0.0001
       70 W      4d1+      -0.0000   -0.0003    0.0000   -0.0000   -0.0000    0.0099    0.0000    0.0000   -0.0000    0.4364
       71 W      5d1+       0.0000    0.0001   -0.0000    0.0000    0.0000    0.0010    0.0000    0.0000   -0.0000    0.0009
       72 W      6d1+      -0.0000   -0.0001    0.0000   -0.0000    0.0000   -0.0012   -0.0000   -0.0000    0.0000   -0.0008
       73 W      7d1+       0.0000    0.0001   -0.0000    0.0000   -0.0000    0.0011    0.0000    0.0000   -0.0000    0.0004
       74 W      8d1+      -0.0000   -0.0001    0.0000   -0.0000    0.0000   -0.0007   -0.0000   -0.0000   -0.0000    0.0001
       75 W      9d1+       0.0000    0.0001   -0.0000    0.0000   -0.0000    0.0002    0.0000    0.0000    0.0000   -0.0002
       76 W     10d1+      -0.0000   -0.0001    0.0000   -0.0000    0.0000    0.0002    0.0000    0.0000   -0.0000    0.0001
       77 W     11d1+       0.0000    0.0001   -0.0000    0.0000   -0.0000    0.0001    0.0000    0.0000    0.0000   -0.0000
       78 W      3d2+      -0.0000    0.0873   -0.0000    0.0000   -0.0000    0.0000    0.0000    0.0000   -0.0000    0.0002
       79 W      4d2+       0.0000   -0.0000    0.0000   -0.0000    0.0000   -0.0051   -0.0000   -0.0000   -0.0000    0.8997
       80 W      5d2+      -0.0000    0.0000   -0.0000    0.0000    0.0000   -0.0009   -0.0000   -0.0000   -0.0000    0.0000
       81 W      6d2+       0.0000   -0.0000    0.0000   -0.0000   -0.0000    0.0010    0.0000    0.0000   -0.0000    0.0004
       82 W      7d2+      -0.0000    0.0000   -0.0000    0.0000    0.0000   -0.0009   -0.0000   -0.0000    0.0000   -0.0009
       83 W      8d2+       0.0000   -0.0000    0.0000   -0.0000   -0.0000    0.0005    0.0000    0.0000   -0.0000    0.0008
       84 W      9d2+      -0.0000    0.0000   -0.0000    0.0000    0.0000   -0.0001   -0.0000   -0.0000    0.0000   -0.0002
       85 W     10d2+       0.0000    0.0000   -0.0000   -0.0000   -0.0000   -0.0002   -0.0000   -0.0000    0.0000   -0.0001
       86 W     11d2+      -0.0000   -0.0000    0.0000    0.0000    0.0000   -0.0001   -0.0000   -0.0000    0.0000   -0.0001
       87 W      4f3-       0.0000   -0.0000   -0.0000    0.0000    0.0000   -0.0000    0.0000   -0.0000    0.0000    0.0000
       88 W      5f3-      -0.0000    0.0000    0.0000   -0.0000   -0.0000   -0.0000    0.0000   -0.0000   -0.0000   -0.0000
       89 W      6f3-       0.0000   -0.0000   -0.0000    0.0000    0.0000    0.0000   -0.0000    0.0000    0.0000    0.0000
       90 W      7f3-       0.0000    0.0000    0.0000   -0.0000   -0.0000   -0.0000    0.0000   -0.0000    0.0000    0.0000
       91 W      8f3-      -0.0000   -0.0000   -0.0000   -0.0000    0.0000    0.0000   -0.0000    0.0000   -0.0000   -0.0000
       92 W      9f3-       0.0000    0.0000    0.0000    0.0000   -0.0000    0.0000   -0.0000   -0.0000    0.0000    0.0000
       93 W     10f3-      -0.0000   -0.0000   -0.0000    0.0000    0.0000    0.0000    0.0000    0.0000    0.0000    0.0000
       94 W     11f3-       0.0000    0.0000    0.0000   -0.0000   -0.0000   -0.0000    0.0000   -0.0000    0.0000    0.0000
       95 W      4f2-       0.0002    0.0000    0.0000    0.0000   -0.0000    0.0000   -0.0017    0.0000    0.0071    0.0000
       96 W      5f2-      -0.0001    0.0000    0.0000    0.0000   -0.0000    0.0000   -0.0009    0.0000    0.0017    0.0000
       97 W      6f2-       0.0001    0.0000    0.0000   -0.0000    0.0000   -0.0000    0.0009   -0.0000   -0.0017   -0.0000
       98 W      7f2-      -0.0001   -0.0000   -0.0000   -0.0000   -0.0000    0.0000   -0.0004    0.0000    0.0006    0.0000
       99 W      8f2-       0.0001    0.0000    0.0000    0.0000   -0.0000    0.0000   -0.0002    0.0000    0.0003    0.0000
      100 W      9f2-      -0.0000   -0.0000   -0.0000   -0.0000    0.0000   -0.0000    0.0002   -0.0000   -0.0002   -0.0000
      101 W     10f2-       0.0000    0.0000    0.0000    0.0000   -0.0000   -0.0000    0.0000   -0.0000   -0.0002   -0.0000
      102 W     11f2-      -0.0000   -0.0000   -0.0000   -0.0000    0.0000    0.0000   -0.0000    0.0000    0.0000    0.0000
      103 W      4f1-      -0.0000    0.0000    0.0001    0.0000    0.0000    0.0000   -0.0017    0.0000   -0.0026   -0.0000
      104 W      5f1-       0.0000   -0.0000   -0.0001   -0.0000   -0.0000    0.0000   -0.0002   -0.0000   -0.0001   -0.0000
      105 W      6f1-      -0.0000    0.0000    0.0001    0.0000    0.0000   -0.0000    0.0004   -0.0000    0.0003    0.0000
      106 W      7f1-      -0.0000   -0.0000   -0.0001   -0.0000   -0.0000    0.0000   -0.0003    0.0000   -0.0002   -0.0000
      107 W      8f1-       0.0000    0.0000    0.0001    0.0000    0.0000   -0.0000    0.0000    0.0000    0.0000    0.0000
      108 W      9f1-      -0.0000   -0.0000   -0.0000   -0.0000   -0.0000   -0.0000    0.0000   -0.0000    0.0000    0.0000
      109 W     10f1-       0.0000    0.0000    0.0000    0.0000    0.0000   -0.0000    0.0000   -0.0000    0.0000    0.0000
      110 W     11f1-      -0.0000   -0.0000   -0.0000   -0.0000   -0.0000    0.0000   -0.0000    0.0000   -0.0000   -0.0000
      111 W      4f0        0.0000   -0.0000   -0.0000    0.0001   -0.0030    0.0000    0.0000   -0.0023   -0.0000    0.0000
      112 W      5f0       -0.0000    0.0000    0.0000   -0.0001   -0.0006   -0.0000   -0.0000   -0.0003   -0.0000    0.0000
      113 W      6f0        0.0000   -0.0000   -0.0000    0.0001    0.0009   -0.0000    0.0000    0.0006    0.0000   -0.0000
      114 W      7f0       -0.0000    0.0000    0.0000   -0.0001   -0.0006    0.0000    0.0000   -0.0004   -0.0000    0.0000
      115 W      8f0        0.0000   -0.0000   -0.0000    0.0000   -0.0000   -0.0000   -0.0000    0.0000   -0.0000    0.0000
      116 W      9f0        0.0000    0.0000    0.0000   -0.0000    0.0002   -0.0000   -0.0000    0.0001    0.0000   -0.0000
      117 W     10f0       -0.0000   -0.0000   -0.0000    0.0000   -0.0000    0.0000    0.0000    0.0000    0.0000   -0.0000
      118 W     11f0        0.0000    0.0000   -0.0000    0.0000   -0.0001    0.0000   -0.0000   -0.0000   -0.0000    0.0000
      119 W      4f1+      -0.0000    0.0001   -0.0000    0.0000    0.0000   -0.0017   -0.0000   -0.0000   -0.0000    0.0026
      120 W      5f1+       0.0000   -0.0001    0.0000   -0.0000    0.0000   -0.0002   -0.0000   -0.0000   -0.0000    0.0001
      121 W      6f1+      -0.0000    0.0001   -0.0000    0.0000   -0.0000    0.0004    0.0000    0.0000    0.0000   -0.0003
      122 W      7f1+      -0.0000   -0.0001    0.0000   -0.0000    0.0000   -0.0003   -0.0000   -0.0000   -0.0000    0.0002
      123 W      8f1+       0.0000    0.0001   -0.0000    0.0000   -0.0000    0.0000    0.0000    0.0000    0.0000   -0.0000
      124 W      9f1+      -0.0000   -0.0000    0.0000   -0.0000   -0.0000    0.0000    0.0000    0.0000    0.0000   -0.0000
      125 W     10f1+       0.0000    0.0000   -0.0000    0.0000    0.0000    0.0000    0.0000   -0.0000    0.0000   -0.0000
      126 W     11f1+      -0.0000   -0.0000    0.0000   -0.0000    0.0000   -0.0000   -0.0000   -0.0000   -0.0000    0.0000
      127 W      4f2+      -0.0000   -0.0000    0.0000    0.0000   -0.0000    0.0017    0.0000    0.0000   -0.0000    0.0071
      128 W      5f2+       0.0000   -0.0000    0.0000   -0.0000   -0.0000    0.0009    0.0000    0.0000   -0.0000    0.0017
      129 W      6f2+      -0.0000   -0.0000    0.0000    0.0000    0.0000   -0.0009   -0.0000   -0.0000    0.0000   -0.0017
      130 W      7f2+       0.0000    0.0000   -0.0000   -0.0000   -0.0000    0.0004    0.0000    0.0000   -0.0000    0.0006
      131 W      8f2+      -0.0000   -0.0000    0.0000    0.0000    0.0000    0.0002    0.0000    0.0000   -0.0000    0.0003
      132 W      9f2+       0.0000    0.0000   -0.0000   -0.0000    0.0000   -0.0002   -0.0000   -0.0000    0.0000   -0.0002
      133 W     10f2+      -0.0000   -0.0000    0.0000    0.0000   -0.0000   -0.0000   -0.0000    0.0000    0.0000   -0.0002
      134 W     11f2+       0.0000    0.0000   -0.0000    0.0000   -0.0000    0.0000    0.0000    0.0000   -0.0000    0.0000
      135 W      4f3+       0.0000   -0.0000   -0.0000    0.0001   -0.0020    0.0000    0.0000    0.0015   -0.0000   -0.0000
      136 W      5f3+      -0.0000    0.0000    0.0000   -0.0000   -0.0004   -0.0000   -0.0000    0.0007    0.0000   -0.0000
      137 W      6f3+       0.0000   -0.0000   -0.0000    0.0000    0.0006   -0.0000   -0.0000   -0.0007   -0.0000    0.0000
      138 W      7f3+       0.0000    0.0000    0.0000   -0.0000   -0.0004    0.0000    0.0000    0.0003    0.0000    0.0000
      139 W      8f3+      -0.0000   -0.0000   -0.0000    0.0000   -0.0000   -0.0000   -0.0000    0.0002   -0.0000   -0.0000
      140 W      9f3+       0.0000    0.0000    0.0000   -0.0000    0.0001    0.0000   -0.0000   -0.0002    0.0000   -0.0000
      141 W     10f3+      -0.0000   -0.0000   -0.0000    0.0000   -0.0000    0.0000    0.0000   -0.0000   -0.0000    0.0000
      142 W     11f3+       0.0000   -0.0000   -0.0000    0.0000   -0.0000    0.0000    0.0000    0.0000    0.0000    0.0000
      143 W      5g4-       0.0000    0.0000    0.0000    0.0000   -0.0000    0.0000   -0.0018    0.0000   -0.0002   -0.0000
      144 W      6g4-       0.0000    0.0000    0.0000   -0.0000   -0.0000   -0.0000    0.0002   -0.0000    0.0001    0.0000
      145 W      7g4-      -0.0000   -0.0000   -0.0000   -0.0000    0.0000   -0.0000    0.0003   -0.0000   -0.0000   -0.0000
      146 W      8g4-       0.0000    0.0000    0.0000    0.0000   -0.0000    0.0000   -0.0004    0.0000   -0.0000   -0.0000
      147 W      5g3-      -0.0000    0.0000    0.0000    0.0000    0.0000    0.0000   -0.0000   -0.0000   -0.0000   -0.0000
      148 W      6g3-       0.0000   -0.0000   -0.0000   -0.0000   -0.0000   -0.0000    0.0000    0.0000    0.0000    0.0000
      149 W      7g3-      -0.0000    0.0000    0.0000    0.0000    0.0000   -0.0000    0.0000   -0.0000   -0.0000   -0.0000
      150 W      8g3-       0.0000   -0.0000   -0.0000   -0.0000   -0.0000    0.0000   -0.0000    0.0000   -0.0000   -0.0000
      151 W      5g2-      -0.0000   -0.0000   -0.0000   -0.0000    0.0000   -0.0000    0.0002   -0.0000   -0.0008   -0.0000
      152 W      6g2-       0.0000    0.0000    0.0000    0.0000    0.0000   -0.0000    0.0001   -0.0000    0.0001    0.0000
      153 W      7g2-      -0.0000    0.0000    0.0000    0.0000   -0.0000    0.0000   -0.0002    0.0000    0.0001    0.0000
      154 W      8g2-       0.0000   -0.0000   -0.0000   -0.0000    0.0000   -0.0000    0.0001   -0.0000   -0.0001   -0.0000
      155 W      5g1-       0.0000   -0.0000   -0.0000   -0.0000   -0.0000    0.0000   -0.0021    0.0000    0.0021    0.0000
      156 W      6g1-       0.0000    0.0000    0.0000    0.0000    0.0000   -0.0000    0.0002   -0.0000    0.0001    0.0000
      157 W      7g1-      -0.0000   -0.0000   -0.0000   -0.0000    0.0000   -0.0000    0.0004   -0.0000   -0.0006   -0.0000
      158 W      8g1-       0.0000    0.0000    0.0000    0.0000    0.0000    0.0000   -0.0004    0.0000    0.0004    0.0000
      159 W      5g0       -0.0000    0.0000    0.0000   -0.0000   -0.0001    0.0000   -0.0000   -0.0035   -0.0000    0.0000
      160 W      6g0        0.0000   -0.0000   -0.0000    0.0000    0.0000    0.0000    0.0000    0.0002    0.0000   -0.0000
      161 W      7g0        0.0000    0.0000    0.0000   -0.0000    0.0000   -0.0000    0.0000    0.0008    0.0000   -0.0000
      162 W      8g0       -0.0000   -0.0000   -0.0000    0.0000   -0.0000    0.0000   -0.0000   -0.0008   -0.0000    0.0000
      163 W      5g1+       0.0000   -0.0000    0.0000   -0.0000    0.0000   -0.0021   -0.0000   -0.0000    0.0000   -0.0021
      164 W      6g1+       0.0000    0.0000   -0.0000    0.0000   -0.0000    0.0002    0.0000    0.0000    0.0000   -0.0001
      165 W      7g1+      -0.0000   -0.0000    0.0000   -0.0000    0.0000    0.0004    0.0000    0.0000   -0.0000    0.0006
      166 W      8g1+       0.0000    0.0000   -0.0000    0.0000    0.0000   -0.0004   -0.0000   -0.0000    0.0000   -0.0004
      167 W      5g2+       0.0000    0.0000   -0.0000    0.0000    0.0000   -0.0002   -0.0000   -0.0000    0.0000   -0.0008
      168 W      6g2+      -0.0000   -0.0000    0.0000   -0.0000   -0.0000   -0.0001   -0.0000    0.0000   -0.0000    0.0001
      169 W      7g2+       0.0000   -0.0000    0.0000    0.0000   -0.0000    0.0002    0.0000    0.0000   -0.0000    0.0001
      170 W      8g2+      -0.0000    0.0000   -0.0000   -0.0000    0.0000   -0.0001   -0.0000   -0.0000    0.0000   -0.0001
      171 W      5g3+       0.0000    0.0000   -0.0000   -0.0000    0.0014   -0.0000   -0.0000   -0.0020   -0.0000   -0.0000
      172 W      6g3+      -0.0000   -0.0000    0.0000   -0.0000   -0.0001    0.0000    0.0000    0.0000   -0.0000    0.0000
      173 W      7g3+       0.0000    0.0000   -0.0000    0.0000   -0.0003   -0.0000    0.0000    0.0006   -0.0000    0.0000
      174 W      8g3+      -0.0000   -0.0000    0.0000   -0.0000    0.0004   -0.0000   -0.0000   -0.0005    0.0000   -0.0000
      175 W      5g4+       0.0000    0.0000   -0.0000    0.0000   -0.0000   -0.0018   -0.0000   -0.0000   -0.0000    0.0002
      176 W      6g4+       0.0000    0.0000   -0.0000   -0.0000   -0.0000    0.0002    0.0000    0.0000    0.0000   -0.0001
      177 W      7g4+      -0.0000   -0.0000    0.0000   -0.0000    0.0000    0.0003    0.0000   -0.0000   -0.0000    0.0000
      178 W      8g4+       0.0000    0.0000   -0.0000    0.0000   -0.0000   -0.0004   -0.0000   -0.0000   -0.0000    0.0000
      179 W      6h5-      -0.0000   -0.0000   -0.0000   -0.0000    0.0000   -0.0000    0.0003   -0.0000   -0.0019   -0.0000
      180 W      7h5-       0.0000    0.0000    0.0000    0.0000    0.0000    0.0000   -0.0001    0.0000    0.0008    0.0000
      181 W      6h4-      -0.0000   -0.0000   -0.0000   -0.0000    0.0000   -0.0000    0.0012   -0.0000    0.0004    0.0000
      182 W      7h4-       0.0000    0.0000    0.0000    0.0000   -0.0000    0.0000   -0.0006    0.0000   -0.0002   -0.0000
      183 W      6h3-      -0.0000   -0.0000   -0.0000   -0.0000    0.0000   -0.0000    0.0000    0.0000    0.0000    0.0000
      184 W      7h3-       0.0000    0.0000    0.0000    0.0000    0.0000    0.0000   -0.0000   -0.0000   -0.0000   -0.0000
      185 W      6h2-      -0.0000   -0.0000   -0.0000   -0.0000    0.0000   -0.0000    0.0004   -0.0000   -0.0015   -0.0000
      186 W      7h2-       0.0000    0.0000    0.0000    0.0000   -0.0000    0.0000   -0.0002    0.0000    0.0006    0.0000
      187 W      6h1-      -0.0000   -0.0000   -0.0000   -0.0000    0.0000   -0.0000    0.0004   -0.0000    0.0008    0.0000
      188 W      7h1-       0.0000    0.0000    0.0000    0.0000    0.0000    0.0000   -0.0002    0.0000   -0.0004   -0.0000
      189 W      6h0       -0.0000    0.0000    0.0000   -0.0000   -0.0003    0.0000   -0.0000   -0.0009   -0.0000    0.0000
      190 W      7h0        0.0000   -0.0000   -0.0000    0.0000    0.0001   -0.0000    0.0000    0.0004    0.0000   -0.0000
      191 W      6h1+      -0.0000   -0.0000    0.0000   -0.0000   -0.0000    0.0004    0.0000    0.0000    0.0000   -0.0008
      192 W      7h1+       0.0000    0.0000   -0.0000    0.0000    0.0000   -0.0002   -0.0000   -0.0000   -0.0000    0.0004
      193 W      6h2+       0.0000    0.0000   -0.0000   -0.0000    0.0000   -0.0004   -0.0000    0.0000    0.0000   -0.0015
      194 W      7h2+      -0.0000   -0.0000    0.0000    0.0000   -0.0000    0.0002    0.0000   -0.0000   -0.0000    0.0006
      195 W      6h3+      -0.0000   -0.0000    0.0000   -0.0000   -0.0004    0.0000    0.0000    0.0011   -0.0000    0.0000
      196 W      7h3+       0.0000    0.0000   -0.0000    0.0000    0.0002   -0.0000   -0.0000   -0.0006    0.0000   -0.0000
      197 W      6h4+      -0.0000   -0.0000    0.0000   -0.0000    0.0000    0.0012    0.0000    0.0000    0.0000   -0.0004
      198 W      7h4+       0.0000    0.0000   -0.0000    0.0000   -0.0000   -0.0006   -0.0000   -0.0000   -0.0000    0.0002
      199 W      6h5+       0.0000    0.0000   -0.0000   -0.0000    0.0000   -0.0003   -0.0000   -0.0000    0.0000   -0.0019
      200 W      7h5+      -0.0000   -0.0000    0.0000    0.0000   -0.0000    0.0001    0.0000    0.0000   -0.0000    0.0008

          Orbital           21        22        23        24        25        26        27        28        29        30    
          Energy           -9.9246   -9.9246   -9.9217   -3.2933   -1.9525   -1.9525   -1.8578   -1.8070   -1.7679   -1.7679
          Occ. No.          2.0000    2.0000    2.0000    2.0000    2.0000    2.0000    2.0000    2.0000    2.0000    2.0000

        1 W      1s        -0.0000    0.0000   -0.0000    0.0000   -0.0000   -0.0000    0.0000   -0.0000    0.0000   -0.0000
        2 W      2s        -0.0000   -0.0000   -0.0000   -0.0000    0.0000   -0.0000   -0.0000    0.0000   -0.0000   -0.0000
        3 W      3s         0.0000    0.0000    0.0000    0.0001    0.0000    0.0000    0.0000    0.0000    0.0000   -0.0000
        4 W      4s         0.0000    0.0000    0.0027   -0.0013    0.0000   -0.0000    0.0002    0.0000   -0.0000   -0.0000
        5 W      5s        -0.0000   -0.0000   -0.0057   -0.9845    0.0000   -0.0000   -0.0284    0.0000   -0.0000    0.0000
        6 W      6s         0.0000    0.0000    0.0008   -0.0421   -0.0000    0.0000   -0.0010    0.0000   -0.0000    0.0000
        7 W      7s        -0.0000   -0.0000   -0.0007    0.0267    0.0000    0.0000    0.0002    0.0000    0.0000    0.0000
        8 W      8s         0.0000    0.0000    0.0011   -0.0278   -0.0000   -0.0000    0.0010    0.0000   -0.0000   -0.0000
        9 W      9s        -0.0000   -0.0000   -0.0005   -0.0011    0.0000   -0.0000   -0.0015   -0.0000   -0.0000   -0.0000
       10 W     10s        -0.0000   -0.0000   -0.0002    0.0114    0.0000    0.0000    0.0006   -0.0000    0.0000   -0.0000
       11 W     11s         0.0000   -0.0000    0.0001    0.0019   -0.0000    0.0000    0.0002   -0.0000    0.0000    0.0000
       12 W      2px        0.0000   -0.0000   -0.0000   -0.0000    0.0000   -0.0000   -0.0000    0.0000    0.0000   -0.0000
       13 W      3px       -0.0001    0.0000    0.0000   -0.0000   -0.0001    0.0000   -0.0000   -0.0000    0.0000   -0.0000
       14 W      4px       -0.0110    0.0000    0.0000   -0.0000    0.0004   -0.0000   -0.0000    0.0000    0.0003   -0.0000
       15 W      5px        0.0101   -0.0000   -0.0000    0.0000    0.9386   -0.0000   -0.0000    0.0000   -0.0526    0.0000
       16 W      6px       -0.0024    0.0000    0.0000    0.0000    0.0569   -0.0000   -0.0000    0.0000   -0.0070    0.0000
       17 W      7px        0.0037   -0.0000   -0.0000   -0.0000   -0.0474    0.0000    0.0000    0.0000    0.0059   -0.0000
       18 W      8px       -0.0010    0.0000    0.0000    0.0000   -0.0103    0.0000    0.0000    0.0000    0.0009   -0.0000
       19 W      9px       -0.0007    0.0000    0.0000   -0.0000    0.0140   -0.0000   -0.0000    0.0000   -0.0016    0.0000
       20 W     10px        0.0008   -0.0000   -0.0000   -0.0000    0.0038   -0.0000   -0.0000   -0.0000   -0.0001    0.0000
       21 W     11px        0.0002   -0.0000   -0.0000   -0.0000   -0.0002    0.0000   -0.0000   -0.0000    0.0001   -0.0000
       22 W      2py        0.0000    0.0000   -0.0000   -0.0000   -0.0000   -0.0000   -0.0000   -0.0000    0.0000    0.0000
       23 W      3py       -0.0000   -0.0001   -0.0000    0.0000    0.0000    0.0001    0.0000   -0.0000    0.0000    0.0000
       24 W      4py       -0.0000   -0.0110    0.0000   -0.0000   -0.0000   -0.0004   -0.0000   -0.0000    0.0000    0.0003
       25 W      5py        0.0000    0.0101   -0.0000    0.0000   -0.0000   -0.9386   -0.0000   -0.0000   -0.0000   -0.0526
       26 W      6py       -0.0000   -0.0024    0.0000    0.0000   -0.0000   -0.0569   -0.0000   -0.0000   -0.0000   -0.0070
       27 W      7py        0.0000    0.0037   -0.0000    0.0000    0.0000    0.0474   -0.0000    0.0000    0.0000    0.0059
       28 W      8py       -0.0000   -0.0010   -0.0000   -0.0000    0.0000    0.0103    0.0000    0.0000    0.0000    0.0009
       29 W      9py       -0.0000   -0.0007    0.0000   -0.0000   -0.0000   -0.0140   -0.0000   -0.0000   -0.0000   -0.0016
       30 W     10py        0.0000    0.0008    0.0000    0.0000   -0.0000   -0.0038   -0.0000   -0.0000   -0.0000   -0.0001
       31 W     11py        0.0000    0.0002   -0.0000    0.0000    0.0000    0.0002   -0.0000    0.0000    0.0000    0.0001
       32 W      2pz        0.0000    0.0000    0.0000    0.0000    0.0000    0.0000    0.0000   -0.0000    0.0000   -0.0000
       33 W      3pz       -0.0000    0.0000   -0.0001   -0.0000   -0.0000   -0.0000   -0.0001   -0.0000   -0.0000   -0.0000
       34 W      4pz        0.0000    0.0000    0.0023    0.0013   -0.0000    0.0000   -0.0003    0.0000   -0.0000   -0.0000
       35 W      5pz       -0.0000   -0.0000   -0.0073   -0.0705    0.0000   -0.0000    0.5688    0.0000    0.0000   -0.0000
       36 W      6pz        0.0000    0.0000    0.0018    0.0042    0.0000   -0.0000    0.0397   -0.0000    0.0000   -0.0000
       37 W      7pz       -0.0000    0.0000   -0.0027   -0.0030   -0.0000    0.0000   -0.0288   -0.0000   -0.0000    0.0000
       38 W      8pz        0.0000    0.0000    0.0006   -0.0012   -0.0000    0.0000   -0.0099   -0.0000   -0.0000    0.0000
       39 W      9pz        0.0000   -0.0000    0.0006    0.0013    0.0000   -0.0000    0.0095   -0.0000    0.0000   -0.0000
       40 W     10pz       -0.0000   -0.0000   -0.0007    0.0002    0.0000    0.0000    0.0035   -0.0000    0.0000   -0.0000
       41 W     11pz       -0.0000   -0.0000   -0.0002   -0.0001   -0.0000    0.0000   -0.0001   -0.0000   -0.0000   -0.0000
       42 W      3d2-       0.0000    0.0001   -0.0000    0.0000   -0.0000   -0.0000    0.0000   -0.0000    0.0000    0.0002
       43 W      4d2-       0.0000    0.4362   -0.0000    0.0000    0.0000    0.0022   -0.0000   -0.0000    0.0000    0.0072
       44 W      5d2-      -0.0000   -0.0025    0.0000    0.0000   -0.0000   -0.0587    0.0000   -0.0000   -0.0000   -0.0500
       45 W      6d2-       0.0000    0.0030   -0.0000   -0.0000    0.0000    0.0288   -0.0000    0.0000    0.0000    0.0259
       46 W      7d2-      -0.0000   -0.0027    0.0000    0.0000   -0.0000   -0.0047   -0.0000    0.0000   -0.0000   -0.0073
       47 W      8d2-       0.0000    0.0013   -0.0000    0.0000   -0.0000   -0.0049    0.0000   -0.0000   -0.0000   -0.0010
       48 W      9d2-      -0.0000   -0.0000    0.0000   -0.0000    0.0000    0.0021    0.0000    0.0000    0.0000    0.0006
       49 W     10d2-      -0.0000   -0.0004    0.0000   -0.0000    0.0000    0.0008    0.0000    0.0000   -0.0000   -0.0000
       50 W     11d2-      -0.0000   -0.0002    0.0000   -0.0000   -0.0000   -0.0000    0.0000    0.0000   -0.0000   -0.0002
       51 W      3d1-       0.0000    0.0003   -0.0000   -0.0000   -0.0000   -0.0000    0.0000    0.0000   -0.0000   -0.0001
       52 W      4d1-       0.0000    0.8996   -0.0000   -0.0000    0.0000    0.0050    0.0000    0.0000    0.0000    0.0002
       53 W      5d1-      -0.0000   -0.0032    0.0000    0.0000   -0.0000   -0.0906   -0.0000   -0.0000   -0.0000   -0.0233
       54 W      6d1-       0.0000    0.0040   -0.0000   -0.0000    0.0000    0.0442    0.0000    0.0000    0.0000    0.0125
       55 W      7d1-      -0.0000   -0.0039    0.0000    0.0000   -0.0000   -0.0076   -0.0000   -0.0000   -0.0000   -0.0039
       56 W      8d1-       0.0000    0.0020   -0.0000    0.0000   -0.0000   -0.0065   -0.0000   -0.0000   -0.0000   -0.0005
       57 W      9d1-      -0.0000   -0.0002    0.0000   -0.0000    0.0000    0.0024   -0.0000    0.0000    0.0000    0.0006
       58 W     10d1-      -0.0000   -0.0005   -0.0000   -0.0000    0.0000    0.0009   -0.0000    0.0000   -0.0000   -0.0000
       59 W     11d1-      -0.0000   -0.0003    0.0000    0.0000   -0.0000   -0.0000   -0.0000   -0.0000   -0.0000   -0.0001
       60 W      3d0        0.0000    0.0000    0.0003   -0.0000    0.0000   -0.0000    0.0000   -0.0000    0.0000   -0.0000
       61 W      4d0        0.0000    0.0000    0.9999   -0.0058    0.0000    0.0000    0.0001   -0.0000    0.0000   -0.0000
       62 W      5d0       -0.0000   -0.0000   -0.0034    0.0289    0.0000    0.0000   -0.0201    0.0000   -0.0000    0.0000
       63 W      6d0        0.0000    0.0000    0.0042   -0.0199   -0.0000   -0.0000    0.0082    0.0000    0.0000   -0.0000
       64 W      7d0       -0.0000   -0.0000   -0.0041    0.0076   -0.0000    0.0000    0.0008   -0.0000   -0.0000    0.0000
       65 W      8d0        0.0000    0.0000    0.0022    0.0020    0.0000    0.0000   -0.0034   -0.0000   -0.0000   -0.0000
       66 W      9d0       -0.0000   -0.0000   -0.0003   -0.0021    0.0000   -0.0000    0.0014   -0.0000    0.0000   -0.0000
       67 W     10d0       -0.0000   -0.0000   -0.0005   -0.0003   -0.0000    0.0000    0.0007   -0.0000    0.0000   -0.0000
       68 W     11d0       -0.0000   -0.0000   -0.0003    0.0001   -0.0000   -0.0000    0.0001   -0.0000    0.0000   -0.0000
       69 W      3d1+       0.0003   -0.0000   -0.0000    0.0000    0.0000   -0.0000    0.0000    0.0000   -0.0001    0.0000
       70 W      4d1+       0.8996   -0.0000   -0.0000   -0.0000   -0.0050    0.0000    0.0000    0.0000    0.0002   -0.0000
       71 W      5d1+      -0.0032    0.0000    0.0000   -0.0000    0.0906   -0.0000   -0.0000    0.0000   -0.0233    0.0000
       72 W      6d1+       0.0040   -0.0000   -0.0000    0.0000   -0.0442    0.0000    0.0000   -0.0000    0.0125   -0.0000
       73 W      7d1+      -0.0039    0.0000    0.0000    0.0000    0.0076   -0.0000   -0.0000    0.0000   -0.0039    0.0000
       74 W      8d1+       0.0020   -0.0000   -0.0000   -0.0000    0.0065   -0.0000   -0.0000    0.0000   -0.0005    0.0000
       75 W      9d1+      -0.0002    0.0000    0.0000    0.0000   -0.0024    0.0000    0.0000   -0.0000    0.0006   -0.0000
       76 W     10d1+      -0.0005    0.0000    0.0000    0.0000   -0.0009    0.0000    0.0000   -0.0000   -0.0000    0.0000
       77 W     11d1+      -0.0003    0.0000    0.0000    0.0000    0.0000   -0.0000    0.0000    0.0000   -0.0001    0.0000
       78 W      3d2+      -0.0001    0.0000    0.0000   -0.0000   -0.0000    0.0000   -0.0000   -0.0000   -0.0002    0.0000
       79 W      4d2+      -0.4362    0.0000    0.0000    0.0000    0.0022   -0.0000   -0.0000    0.0000   -0.0072    0.0000
       80 W      5d2+       0.0025   -0.0000   -0.0000   -0.0000   -0.0587    0.0000    0.0000   -0.0000    0.0500   -0.0000
       81 W      6d2+      -0.0030    0.0000    0.0000    0.0000    0.0288   -0.0000   -0.0000    0.0000   -0.0259    0.0000
       82 W      7d2+       0.0027   -0.0000   -0.0000   -0.0000   -0.0047    0.0000    0.0000   -0.0000    0.0073   -0.0000
       83 W      8d2+      -0.0013    0.0000    0.0000    0.0000   -0.0049    0.0000    0.0000   -0.0000    0.0010   -0.0000
       84 W      9d2+       0.0000   -0.0000   -0.0000    0.0000    0.0021   -0.0000   -0.0000   -0.0000   -0.0006    0.0000
       85 W     10d2+       0.0004   -0.0000   -0.0000   -0.0000    0.0008   -0.0000   -0.0000   -0.0000    0.0000   -0.0000
       86 W     11d2+       0.0002   -0.0000   -0.0000   -0.0000   -0.0000    0.0000   -0.0000   -0.0000    0.0002   -0.0000
       87 W      4f3-      -0.0000   -0.0000   -0.0000   -0.0000   -0.0000   -0.0000   -0.0000    0.9997    0.0000    0.0000
       88 W      5f3-       0.0000   -0.0000    0.0000   -0.0000   -0.0000   -0.0000   -0.0000    0.0100    0.0000    0.0000
       89 W      6f3-      -0.0000    0.0000   -0.0000   -0.0000   -0.0000    0.0000   -0.0000    0.0096    0.0000    0.0000
       90 W      7f3-      -0.0000   -0.0000    0.0000    0.0000    0.0000    0.0000    0.0000   -0.0030   -0.0000   -0.0000
       91 W      8f3-       0.0000   -0.0000    0.0000   -0.0000   -0.0000   -0.0000    0.0000   -0.0033   -0.0000   -0.0000
       92 W      9f3-      -0.0000    0.0000    0.0000    0.0000   -0.0000   -0.0000   -0.0000    0.0000    0.0000   -0.0000
       93 W     10f3-       0.0000    0.0000   -0.0000   -0.0000    0.0000    0.0000   -0.0000    0.0006    0.0000    0.0000
       94 W     11f3-      -0.0000    0.0000   -0.0000   -0.0000    0.0000    0.0000    0.0000    0.0001    0.0000    0.0000
       95 W      4f2-       0.0000    0.0089   -0.0000   -0.0000    0.0000    0.2778    0.0000    0.0000   -0.0000   -0.6040
       96 W      5f2-       0.0000    0.0041   -0.0000   -0.0000    0.0000    0.0188    0.0000    0.0000   -0.0000   -0.0040
       97 W      6f2-      -0.0000   -0.0032    0.0000    0.0000   -0.0000   -0.0001    0.0000    0.0000   -0.0000   -0.0076
       98 W      7f2-       0.0000    0.0007   -0.0000    0.0000   -0.0000   -0.0056   -0.0000   -0.0000    0.0000    0.0016
       99 W      8f2-       0.0000    0.0011   -0.0000   -0.0000    0.0000    0.0018   -0.0000   -0.0000    0.0000    0.0029
      100 W      9f2-      -0.0000   -0.0006    0.0000   -0.0000    0.0000    0.0007    0.0000    0.0000   -0.0000   -0.0001
      101 W     10f2-      -0.0000   -0.0004    0.0000    0.0000   -0.0000   -0.0010   -0.0000   -0.0000   -0.0000   -0.0008
      102 W     11f2-       0.0000    0.0000   -0.0000    0.0000   -0.0000   -0.0004   -0.0000   -0.0000   -0.0000   -0.0002
      103 W      4f1-       0.0000    0.0027   -0.0000   -0.0000    0.0000    0.1402   -0.0000   -0.0000    0.0000    0.7925
      104 W      5f1-       0.0000    0.0001   -0.0000   -0.0000    0.0000    0.0127    0.0000    0.0000    0.0000    0.0050
      105 W      6f1-      -0.0000   -0.0003    0.0000    0.0000    0.0000    0.0013   -0.0000   -0.0000    0.0000    0.0091
      106 W      7f1-       0.0000    0.0002   -0.0000    0.0000   -0.0000   -0.0035   -0.0000   -0.0000   -0.0000   -0.0021
      107 W      8f1-       0.0000    0.0000   -0.0000   -0.0000    0.0000    0.0002    0.0000    0.0000   -0.0000   -0.0030
      108 W      9f1-       0.0000    0.0000    0.0000    0.0000    0.0000    0.0004    0.0000    0.0000    0.0000    0.0000
[...]
         1   13       2.31825027E-02  5.15814640E-04  2.95298148E-09  2.57659508E+07  2.57659508E+07
         1   15       9.32271327E-03  8.42118759E-05  1.03710090E+07  7.84767695E-09  1.03710090E+07
         1   17       9.32267815E-03  1.03709710E+07  8.41483523E-05  1.62121962E-03  1.03709710E+07
         2    4       3.60898146E-01  1.97494698E+01  1.93141022E+08  1.10835935E-11  1.93141042E+08
         2    6       3.60898449E-01  1.93141201E+08  1.97494600E+01  9.32933788E-05  1.93141220E+08
         2    8       4.51546977E-02  2.80847574E+07  3.29751935E-06  7.82912343E-03  2.80847574E+07
         2   10       4.51550010E-02  3.29393756E-06  2.80849533E+07  5.80932090E-10  2.80849533E+07
         2   12       3.85517027E-01  1.61025619E-03  8.38071889E-11  2.41705215E+08  2.41705215E+08
         2   14       2.31825027E-02  5.15814640E-04  2.95298148E-09  2.57659508E+07  2.57659508E+07
         2   16       9.32271327E-03  8.42118759E-05  1.03710090E+07  7.84767695E-09  1.03710090E+07
         2   18       9.32267815E-03  1.03709710E+07  8.41483523E-05  1.62121962E-03  1.03709710E+07
         3    7       5.96793477E-03  1.98524277E-03  1.94562847E+04  9.74452153E-04  1.94562876E+04
         3    9       8.88480027E-03  1.94564151E+04  1.98523817E-03  9.50935626E+03  2.89657733E+04
         3   11       2.73276390E-04  1.01461390E-04  9.92302000E+02  1.23400417E-13  9.92302101E+02
         3   13       2.78611728E-02  2.96708502E-01  2.90127262E+06  1.72527853E-09  2.90127292E+06
         3   15       1.04082874E-01  2.96682764E+06  2.97958225E-01  7.90371374E+06  1.08705417E+07
         3   17       2.84071725E-02  2.97986057E-01  2.96687940E+06  8.22650019E-01  2.96688052E+06
         4    8       5.96793477E-03  1.98524277E-03  1.94562847E+04  9.74452153E-04  1.94562876E+04
         4   10       8.88480027E-03  1.94564151E+04  1.98523817E-03  9.50935626E+03  2.89657733E+04
         4   12       2.73276390E-04  1.01461390E-04  9.92302000E+02  1.23400417E-13  9.92302101E+02
         4   14       2.78611728E-02  2.96708502E-01  2.90127262E+06  1.72527853E-09  2.90127292E+06
         4   16       1.04082874E-01  2.96682764E+06  2.97958225E-01  7.90371374E+06  1.08705417E+07
         4   18       2.84071725E-02  2.97986057E-01  2.96687940E+06  8.22650019E-01  2.96688052E+06
         5    7       8.88483374E-03  1.94564091E+04  1.98522376E-03  9.50933570E+03  2.89657468E+04
         5    9       5.96795856E-03  1.98524007E-03  1.94564098E+04  9.74452558E-04  1.94564127E+04
         5   11       2.73249359E-04  9.92202795E+02  1.01462494E-04  4.02702110E-07  9.92202897E+02
         5   13       2.78619898E-02  2.90135712E+06  2.96633970E-01  5.16937003E-04  2.90135742E+06
         5   15       2.84067835E-02  2.98021918E-01  2.96683723E+06  8.22649685E-01  2.96683836E+06
         5   17       1.04082557E-01  2.96679606E+06  2.97994513E-01  7.90371357E+06  1.08705099E+07
         6    8       8.88483374E-03  1.94564091E+04  1.98522376E-03  9.50933570E+03  2.89657468E+04
         6   10       5.96795856E-03  1.98524007E-03  1.94564098E+04  9.74452558E-04  1.94564127E+04
         6   12       2.73249359E-04  9.92202795E+02  1.01462494E-04  4.02702110E-07  9.92202897E+02
         6   14       2.78619898E-02  2.90135712E+06  2.96633970E-01  5.16937003E-04  2.90135742E+06
         6   16       2.84067835E-02  2.98021918E-01  2.96683723E+06  8.22649685E-01  2.96683836E+06
         6   18       1.04082557E-01  2.96679606E+06  2.97994513E-01  7.90371357E+06  1.08705099E+07
         7   11       2.89891664E-04  2.89702372E+00  3.42371926E-13  1.68578851E-10  2.89702372E+00
         7   13       6.44555050E-04  4.54687838E+04  6.97328166E-09  4.66794591E-04  4.54687842E+04
         7   15       5.06407933E-03  3.63715424E-06  3.58518899E+05  3.44887427E-06  3.58518899E+05
         7   17       1.28227869E-02  3.58488801E+05  3.65102647E-06  5.49319500E+05  9.07808300E+05
         8   12       2.89891664E-04  2.89702372E+00  3.42371926E-13  1.68578851E-10  2.89702372E+00
         8   14       6.44555050E-04  4.54687838E+04  6.97328166E-09  4.66794591E-04  4.54687842E+04
         8   16       5.06407933E-03  3.63715424E-06  3.58518899E+05  3.44887427E-06  3.58518899E+05
         8   18       1.28227869E-02  3.58488801E+05  3.65102647E-06  5.49319500E+05  9.07808300E+05
         9   11       2.89888673E-04  3.36726024E-13  2.89680736E+00  1.00765995E-17  2.89680736E+00
         9   13       6.44516558E-04  3.92945623E-09  4.54660341E+04  7.19176141E-11  4.54660341E+04
         9   15       1.28230857E-02  3.58505861E+05  3.65253605E-06  5.49322542E+05  9.07828403E+05
         9   17       5.06392071E-03  3.66330872E-06  3.58507535E+05  3.45014496E-06  3.58507535E+05
        10   12       2.89888673E-04  3.36726024E-13  2.89680736E+00  1.00765995E-17  2.89680736E+00
        10   14       6.44516558E-04  3.92945623E-09  4.54660341E+04  7.19176141E-11  4.54660341E+04
        10   16       1.28230857E-02  3.58505861E+05  3.65253605E-06  5.49322542E+05  9.07828403E+05
        10   18       5.06392071E-03  3.66330872E-06  3.58507535E+05  3.45014496E-06  3.58507535E+05
        11   13       1.16387452E-01  3.12583585E-04  1.34219287E-09  8.01602847E+06  8.01602847E+06
        11   15       6.50596313E-02  3.65025868E-05  4.49719445E+06  2.36610504E-09  4.49719445E+06
        11   17       6.50601053E-02  4.49722899E+06  3.64798731E-05  6.89948716E-04  4.49722899E+06
        12   14       1.16387452E-01  3.12583585E-04  1.34219287E-09  8.01602847E+06  8.01602847E+06
        12   16       6.50596313E-02  3.65025868E-05  4.49719445E+06  2.36610504E-09  4.49719445E+06
        12   18       6.50601053E-02  4.49722899E+06  3.64798731E-05  6.89948716E-04  4.49722899E+06
        13   15       1.23982183E-05  2.27588221E-14  2.81983937E-03  8.15341324E-18  2.81983937E-03
        13   17       1.23997002E-05  2.82079131E-03  2.30146633E-14  1.53631096E-12  2.82079131E-03
        14   16       1.23982183E-05  2.27588221E-14  2.81983937E-03  8.15341324E-18  2.81983937E-03
        14   18       1.23997002E-05  2.82079131E-03  2.30146633E-14  1.53631096E-12  2.82079131E-03
     -----------------------------------------------------------------------------------------------
--

++ Velocity transition strengths (SO states):
   ------------------------------------------
    for osc. strength at least    1.0000000000000001E-005

      From   To        Osc. strength     Einstein coefficients Ax, Ay, Az (sec-1)    Total A (sec-1)
     -----------------------------------------------------------------------------------------------
         1    3       3.33157103E-01  1.82314597E+01  1.78295532E+08  1.39505042E-11  1.78295550E+08
         1    5       3.33157384E-01  1.78295698E+08  1.82314442E+01  8.46519396E-05  1.78295716E+08
         1    7       4.11359870E-02  2.55853387E+07  3.00472081E-06  7.26337785E-03  2.55853387E+07
         1    9       4.11362617E-02  2.99971915E-06  2.55855161E+07  5.45778807E-10  2.55855161E+07
         1   11       3.57073978E-01  1.47819778E-03  6.79684998E-11  2.23873232E+08  2.23873232E+08
         1   13       2.11460348E-02  5.00317007E-04  2.93509038E-09  2.35026215E+07  2.35026215E+07
         1   15       8.97870990E-03  8.10840866E-05  9.98835881E+06  7.13583296E-09  9.98835881E+06
         1   17       8.97867717E-03  9.98832339E+06  8.10478874E-05  1.47351015E-03  9.98832339E+06
         2    4       3.33157103E-01  1.82314597E+01  1.78295532E+08  1.39505042E-11  1.78295550E+08
         2    6       3.33157384E-01  1.78295698E+08  1.82314442E+01  8.46519396E-05  1.78295716E+08
         2    8       4.11359870E-02  2.55853387E+07  3.00472081E-06  7.26337785E-03  2.55853387E+07
         2   10       4.11362617E-02  2.99971915E-06  2.55855161E+07  5.45778807E-10  2.55855161E+07
         2   12       3.57073978E-01  1.47819778E-03  6.79684998E-11  2.23873232E+08  2.23873232E+08
         2   14       2.11460348E-02  5.00317007E-04  2.93509038E-09  2.35026215E+07  2.35026215E+07
         2   16       8.97870990E-03  8.10840866E-05  9.98835881E+06  7.13583296E-09  9.98835881E+06
         2   18       8.97867717E-03  9.98832339E+06  8.10478874E-05  1.47351015E-03  9.98832339E+06
         3    7       3.07289254E-02  1.02220365E-02  1.00180854E+05  4.50774349E-03  1.00180869E+05
         3    9       4.42220598E-02  1.00181451E+05  1.02220168E-02  4.39895472E+04  1.44171008E+05
         3   11       1.63352407E-03  6.06494507E-04  5.93155830E+03  7.71205533E-13  5.93155891E+03
         3   13       3.06893616E-02  3.26828099E-01  3.19579203E+06  1.93521446E-09  3.19579236E+06
         3   15       1.14638912E-01  3.22333135E+06  3.23717931E-01  8.74973708E+06  1.19730688E+07
         3   17       3.08630724E-02  3.23749025E-01  3.22338774E+06  9.10707331E-01  3.22338897E+06
         4    8       3.07289254E-02  1.02220365E-02  1.00180854E+05  4.50774349E-03  1.00180869E+05
         4   10       4.42220598E-02  1.00181451E+05  1.02220168E-02  4.39895472E+04  1.44171008E+05
         4   12       1.63352407E-03  6.06494507E-04  5.93155830E+03  7.71205533E-13  5.93155891E+03
         4   14       3.06893616E-02  3.26828099E-01  3.19579203E+06  1.93521446E-09  3.19579236E+06
         4   16       1.14638912E-01  3.22333135E+06  3.23717931E-01  8.74973708E+06  1.19730688E+07
         4   18       3.08630724E-02  3.23749025E-01  3.22338774E+06  9.10707331E-01  3.22338897E+06
         5    7       4.42222581E-02  1.00181448E+05  1.02219752E-02  4.39895211E+04  1.44170980E+05
         5    9       3.07290017E-02  1.02220621E-02  1.00181348E+05  4.50774022E-03  1.00181362E+05
         5   11       1.63336792E-03  5.93098501E+03  6.06493825E-04  1.59417343E-06  5.93098562E+03
         5   13       3.06902536E-02  3.19588429E+06  3.26746920E-01  5.74541671E-04  3.19588462E+06
         5   15       3.08626499E-02  3.23788669E-01  3.22334194E+06  9.10707337E-01  3.22334318E+06
         5   17       1.14638554E-01  3.22329620E+06  3.23758433E-01  8.74973628E+06  1.19730328E+07
         6    8       4.42222581E-02  1.00181448E+05  1.02219752E-02  4.39895211E+04  1.44170980E+05
         6   10       3.07290017E-02  1.02220621E-02  1.00181348E+05  4.50774022E-03  1.00181362E+05
         6   12       1.63336792E-03  5.93098501E+03  6.06493825E-04  1.59417343E-06  5.93098562E+03
         6   14       3.06902536E-02  3.19588429E+06  3.26746920E-01  5.74541671E-04  3.19588462E+06
         6   16       3.08626499E-02  3.23788669E-01  3.22334194E+06  9.10707337E-01  3.22334318E+06
         6   18       1.14638554E-01  3.22329620E+06  3.23758433E-01  8.74973628E+06  1.19730328E+07
         7   11       5.38941702E-02  5.38591661E+02  6.29997552E-11  3.58480620E-10  5.38591661E+02
         7   13       8.52556424E-04  6.01420135E+04  9.13607730E-09  5.21609559E-04  6.01420140E+04
         7   15       6.01517656E-03  4.31792606E-06  4.25854698E+05  3.49642506E-06  4.25854698E+05
         7   17       1.38796803E-02  4.25819607E+05  4.33679557E-06  5.56816446E+05  9.82636053E+05
         8   12       5.38941702E-02  5.38591661E+02  6.29997552E-11  3.58480620E-10  5.38591661E+02
         8   14       8.52556424E-04  6.01420135E+04  9.13607730E-09  5.21609559E-04  6.01420140E+04
         8   16       6.01517656E-03  4.31792606E-06  4.25854698E+05  3.49642506E-06  4.25854698E+05
         8   18       1.38796803E-02  4.25819607E+05  4.33679557E-06  5.56816446E+05  9.82636053E+05
         9   11       5.38960831E-02  6.31153445E-11  5.38576107E+02  5.79548940E-18  5.38576107E+02
         9   13       8.52506955E-04  5.26332996E-09  6.01384783E+04  6.78974429E-11  6.01384783E+04
         9   15       1.38800283E-02  4.25839595E+05  4.33915991E-06  5.56819961E+05  9.82659557E+05
         9   17       6.01499885E-03  4.35080592E-06  4.25841958E+05  3.49721970E-06  4.25841958E+05
        10   12       5.38960831E-02  6.31153445E-11  5.38576107E+02  5.79548940E-18  5.38576107E+02
        10   14       8.52506955E-04  5.26332996E-09  6.01384783E+04  6.78974429E-11  6.01384783E+04
        10   16       1.38800283E-02  4.25839595E+05  4.33915991E-06  5.56819961E+05  9.82659557E+05
        10   18       6.01499885E-03  4.35080592E-06  4.25841958E+05  3.49721970E-06  4.25841958E+05
        11   13       1.34902944E-01  3.59055511E-04  1.53181686E-09  9.29129020E+06  9.29129020E+06
        11   15       7.42220847E-02  4.16449618E-05  5.13055948E+06  2.69584616E-09  5.13055948E+06
        11   17       7.42226263E-02  5.13059894E+06  4.16171542E-05  7.81458006E-04  5.13059894E+06
        12   14       1.34902944E-01  3.59055511E-04  1.53181686E-09  9.29129020E+06  9.29129020E+06
        12   16       7.42220847E-02  4.16449618E-05  5.13055948E+06  2.69584616E-09  5.13055948E+06
        12   18       7.42226263E-02  5.13059894E+06  4.16171542E-05  7.81458006E-04  5.13059894E+06
        13   15       1.16158027E-02  2.14052230E-11  2.64189668E+00  4.13509067E-17  2.64189668E+00
        13   17       1.16146014E-02  2.64219940E+00  2.13973272E-11  6.33870968E-12  2.64219940E+00
        14   16       1.16158027E-02  2.14052230E-11  2.64189668E+00  4.13509067E-17  2.64189668E+00
        14   18       1.16146014E-02  2.64219940E+00  2.13973272E-11  6.33870968E-12  2.64219940E+00
     -----------------------------------------------------------------------------------------------
--

++ Length and velocity gauge comparison (SO states):

 --------------------------------------------------
 A comparison between the dipole oscillator strengths in 
 length and velocity gauge will be performed

 All dipole oscillator differences above the tolerance of   0.10000000000000001       will be printed 

 Due to basis set deficiency these oscillator may be problematic 

 The tolerance is defined as ABS(1-O_l/O_v) 
 O_l : dipole oscillator strength in length gauge
 O_p : dipole oscillator strength in velocity gauge
 --------------------------------------------------

  Problematic transitions have been found

      From   To       Difference (%) Osc. st. (len.) Osc. st. (vel.)
     ---------------------------------------------------------------
         3    7            80.578772  5.96793477E-03  3.07289254E-02
         3    9            79.908669  8.88480027E-03  4.42220598E-02
         3   11            83.270746  2.73276390E-04  1.63352407E-03
         4    8            80.578772  5.96793477E-03  3.07289254E-02
         4   10            79.908669  8.88480027E-03  4.42220598E-02
         4   12            83.270746  2.73276390E-04  1.63352407E-03
         5    7            79.908684  8.88483374E-03  4.42222581E-02
         5    9            80.578742  5.96795856E-03  3.07290017E-02
         5   11            83.270802  2.73249359E-04  1.63336792E-03
         6    8            79.908684  8.88483374E-03  4.42222581E-02
         6   10            80.578742  5.96795856E-03  3.07290017E-02
         6   12            83.270802  2.73249359E-04  1.63336792E-03
         7   11            99.462109  2.89891664E-04  5.38941702E-02
         7   13            24.397373  6.44555050E-04  8.52556424E-04
         7   15            15.811626  5.06407933E-03  6.01517656E-03
         8   12            99.462109  2.89891664E-04  5.38941702E-02
         8   14            24.397373  6.44555050E-04  8.52556424E-04
         8   16            15.811626  5.06407933E-03  6.01517656E-03
         9   11            99.462134  2.89888673E-04  5.38960831E-02
         9   13            24.397501  6.44516558E-04  8.52506955E-04
         9   17            15.811776  5.06392071E-03  6.01499885E-03
        10   12            99.462134  2.89888673E-04  5.38960831E-02
        10   14            24.397501  6.44516558E-04  8.52506955E-04
        10   18            15.811776  5.06392071E-03  6.01499885E-03
        11   13            13.725046  1.16387452E-01  1.34902944E-01
        11   15            12.344646  6.50596313E-02  7.42220847E-02
        11   17            12.344647  6.50601053E-02  7.42226263E-02
        12   14            13.725046  1.16387452E-01  1.34902944E-01
        12   16            12.344646  6.50596313E-02  7.42220847E-02
        12   18            12.344647  6.50601053E-02  7.42226263E-02
        13   15            99.893264  1.23982183E-05  1.16158027E-02
        13   17            99.893240  1.23997002E-05  1.16146014E-02
        14   16            99.893264  1.23982183E-05  1.16158027E-02
        14   18            99.893240  1.23997002E-05  1.16146014E-02
     ---------------------------------------------------------------

 Number of problematic transitions =                    34

--

 Electric-dipole - electric-octupole not included
++ I/O STATISTICS
 
  I. General I/O information
  - - - - - - - - - - - - - - - - - - - - - - - - - - - - - - - - - - - - - - - - - - -
  Unit  Name          Flsize      Write/Read            MBytes           Write/Read
                      (MBytes)       Calls              In/Out           Time, sec.
  - - - - - - - - - - - - - - - - - - - - - - - - - - - - - - - - - - - - - - - - - - -
   1  SCRATCH           0.00 .       9/      45 .      0.0/      0.0 .       0/       0
   2  ANNI              0.00 .       0/       0 .      0.0/      0.0 .       0/       0
   3  RUNFILE          15.28 .     322/   10301 .      2.3/     74.7 .       0/       0
   4  ONEINT            6.58 .       0/   28767 .      0.0/   3777.9 .       0/       0
   5  JOBIPH            7.71 .       0/      92 .      0.0/      0.9 .       0/       0
   6  ORDINT          771.03 .       1/    6169 .      0.0/   1542.0 .       0/       0
  - - - - - - - - - - - - - - - - - - - - - - - - - - - - - - - - - - - - - - - - - - -
   *  TOTAL           800.61 .     332/   45374 .      2.3/   5395.5 .       0/       0
  - - - - - - - - - - - - - - - - - - - - - - - - - - - - - - - - - - - - - - - - - - -
 
  II. I/O Access Patterns
  - - - - - - - - - - - - - - - - - - - -
  Unit  Name               % of random
                         Write/Read calls
  - - - - - - - - - - - - - - - - - - - -
   1  SCRATCH             88.9/ 100.0
   2  ANNI                 0.0/   0.0
   3  RUNFILE             28.6/  10.8
   4  ONEINT               0.0/  13.4
   5  JOBIPH               0.0/  76.1
   6  ORDINT             100.0/   0.0
  - - - - - - - - - - - - - - - - - - - -
--
--- Stop Module: rassi at Fri Jan 10 02:41:14 2025 /rc=_RC_ALL_IS_WELL_ ---
*** files: xmldump
    saved to directory /home4/s4752295/Internship/Initial_simulations/Point_charge_model/1_electron/active_space_9_non_rel/W/varying_bond_length
--- Module rassi spent 4 seconds ---

.##################.
.# Happy landing! #.
.##################.

    Timing: Wall=103.28 User=80.43 System=20.35

###############################################################################
Hbrk Cluster
Job 14556729 for user s4752295
Finished at: Fri Jan 10 02:41:14 CET 2025

Job details:
============

Job ID                         : 14556729
Name                           : W_no_c_light
User                           : s4752295
Partition                      : regularmedium
Nodes                          : node101
Number of Nodes                : 1
Cores                          : 1
Number of Tasks                : 1
State                          : RUNNING  
Submit                         : 2025-01-10T02:39:25
Start                          : 2025-01-10T02:39:26
End                            : --
Reserved walltime              : 15:00:00
Used walltime                  : 00:01:49
Used CPU time                  : -- 
% User (Computation)           : --
% System (I/O)                 : --
Total memory reserved          : 25000M
Maximum memory used            : --

Acknowledgements:
=================

Please see this page for information about acknowledging Hbrk in your publications:

https://wiki.hpc.rug.nl/habrok/introduction/scientific_output

################################################################################
