   This run of MOLCAS is using the pymolcas driver

                             OPE
                             OPE          NMOL  CASOP  ENMOLC A   SO
                 OPE        NMOLC        AS  OP EN  MO LC     AS  OP
                OPENM       OL CA        SO  PE NM  OL CA     SOP EN
                OP EN      MO   LC       AS  OP ENMOL  CASO   PENMOL
                OP  EN     MO   LC       AS  OP EN     MO     LC ASO
               OP   E  NMOL  C  AS       OP  EN MO     LC     AS  OP
               OP  E   NMO   LC AS        OPEN  MO     LCASOP EN   M
               O  PEN   MO  LCA  SO
            OPE   NMO   L   CAS    OP
        OPENMOL  CASOP     ENMOL   CASOPE
     OPENMOLCA   SOPENMOLCASOPEN   MOLCASOPE
    OPENMOLCAS   OP           EN   MOL    CAS
    OPENMOLCAS       OP  ENM        O     LCA
    OPENMOLCAS    OPEN  MOLCASO     P  E  NMO
    OPENMOLCAS     OP               E  N  MOL
    OPENMOLCA   SO           PENM   O  L  CAS    OPEN    MO    LCAS
    OPENMOLCA   SOP           ENM   O  L  CAS   OP  EN  MOLC  AS   O
    OPENMOLCA   SOPE           NM      O  LCA   S      OP  EN MO
    OPENMOLC                AS         O  PEN   M      OL  CA  SOPE
    OPENMO        LCASOPE  NMOL        C  ASO   P      ENMOLC     AS
    OPE     NMO      LCA  SO     P     E   NM   OL  CA SO  PE N   MO
          OPENMOLCA            SOPE   NMO        LCAS  O    P  ENMO
     OPENMOLCASOPENMOLCASOPENMOLCASOPENMOLCA
        OPENMOLCASOPENMOLCASOPENMOLCASOPE
            OPENMOLCASOPENMOLCASOPENM
               OPENMOLCASOPENMOLCA        version: o91e1abe7de707b ?
                   OPENMOLCASO
                       OPE                tag:

 OpenMolcas is free software; you can redistribute it and/or modify it
 under the terms of the GNU Lesser General Public License version 2.1.
 OpenMolcas is distributed in the hope that it will be useful, but it
 is provided "as is" and without any express or implied warranties.
 For more details see the full text of the license in the file
 LICENSE or in <http://www.gnu.org/licenses/>.

                 Copyright (C) The OpenMolcas Authors
           For the author list and the recommended citation,
                   consult the file CONTRIBUTORS.md

           *************************************************
           * pymolcas version py2.10                       *
           *   build 3068ae8b88c9345ec6cfef6fef7f1169      *
           *   (after the EMIL interpreter by V. Veryazov) *
           *************************************************

configuration info
------------------
Host name: login1 (Linux)
C Compiler ID: GNU
C flags: -std=gnu99
Fortran Compiler ID: GNU
Fortran flags: -fno-aggressive-loop-optimizations -cpp -fdefault-integer-8 -fmax-stack-var-size=1048576
Definitions: _MOLCAS_;_I8_;_LINUX_;_MKL_
Parallel: OFF (GA=OFF)


   ---------------------------------------------------------------------------------------------------------------------------------------------
  |
  |           Project: tungsten_so_cf
  |    Submitted from: /home4/s4752295/Internship/Initial_simulations/Point_charge_model/1_electron/active_space_9_non_rel/W/varying_bond_length
  |      Scratch area: /tmp/tungsten_so_cf
  |   Save outputs to: /home4/s4752295/Internship/Initial_simulations/Point_charge_model/1_electron/active_space_9_non_rel/W/varying_bond_length
  |            Molcas: /home4/s4752295/Internship/Molcas/recomp_try/OpenMolcas-master/build
  |
  | Scratch area is empty
  |
  |    MOLCAS_DRIVER = /home4/s4752295/Internship/Molcas/bin/pymolcas
  |    MOLCAS_NPROCS = 1
  |    MOLCAS_SOURCE = /home4/s4752295/Internship/Molcas/recomp_try/OpenMolcas-master
  | MOLCAS_STRUCTURE = 0
  |
   ---------------------------------------------------------------------------------------------------------------------------------------------

++ ---------   Input file   ---------

&SEWARD
AMFi

CLIG
$R

Basis Set
W.ANO-rcc.Roos.24s21p15d11f4g2h.11s10p9d8f4g2h.
Spherical d
W            0.0        0.0     0.0
End of Basis

Xfield

4
0.000000,  0.00000,  1.3230     -1.0
1.145752,  0.00000, -0.6615     -1.0
-0.572876,  0.99225, -0.6615    -1.0
-0.572876, -0.99225, -0.6615    -1.0

End of input

&SCF
Occupied
34
Iterations
   50  100
End of Input

&RASSCF
LumOrb
Symmetry
1
Spin
2
Nactel
1 0 0
CIRoot
9 9 1
inactive
34
ras2
9
End of Input

>>> COPY tungsten_so_cf.JobIph $SLURM_SUBMIT_DIR/tungsten_so_cf.doublet.JobIph

>>> COPY $SLURM_SUBMIT_DIR/tungsten_so_cf.doublet.JobIph ./JOB002

&RASSI
NROFJobIph
1 All
SpinOrbit
End of Input

EOF

-- ----------------------------------

--- Start Module: seward at Fri Jan 10 02:32:38 2025 ---

()()()()()()()()()()()()()()()()()()()()()()()()()()()()()()()()()()()()()()()()()()()()()()()()()()

                                              &SEWARD

                                   only a single process is used
                       available to each process: 4.1 GB of memory, 1 thread?
                                            pid: 1099783
()()()()()()()()()()()()()()()()()()()()()()()()()()()()()()()()()()()()()()()()()()()()()()()()()()

 The speed of LIGHT in this CALCULATION =   137.03599917700001     
               SEWARD will generate:
                  Multipole Moment integrals up to order  2
                  Kinetic Energy integrals
                  Nuclear Attraction integrals (point charge)
                  One-Electron Hamiltonian integrals
                  Velocity integrals
                  Relativistic Douglas-Kroll-Hess integrals:
                    - Parametrization         : EXP
                    - DKH order of Hamiltonian: 2
                    - DKH order of Properties : 0
                         - multipole moment operators
                         - electric potential operators
                         - contact operators
                  External field from     4 point(s) added to the one-electron Hamiltonian
                  Orbital angular momentum around ( 0.0000  0.0000  0.0000 )
                  Velocity quadrupole around ( 0.0000  0.0000  0.0000 )
                  Atomic mean-field integrals
                  Two-Electron Repulsion integrals

                   Integrals are discarded if absolute value <: 0.10E-13
                   Integral cutoff threshold is set to       <: 0.10E-15

++    Symmetry information:
      ---------------------

                    Character Table for C1 

                             E  
                    a        1  x, y, xy, Rz, z, xz, Ry, yz, Rx, I
--


++    Basis set information:
      ----------------------


      Basis set label: W.ANO-RCC.ROOS.24S21P15D11F4G2H.11S10P9D8F4G2H......

      Electronic valence basis set:
      ------------------
      Associated Effective Charge  74.000000 au
      Associated Actual Charge     74.000000 au
      Nuclear Model: Point charge

      Shell  nPrim  nBasis  Cartesian Spherical Contaminant
         s      24      11        X                  
         p      21      10        X                  
         d      15       9                 X         
         f      11       8                 X         
         g       4       4                 X         
         h       2       2                 X         
--


++    Molecular structure info:
      -------------------------

                    ************************************************ 
                    **** Cartesian Coordinates / Bohr, Angstrom **** 
                    ************************************************ 

     Center  Label                x              y              z                     x              y              z
        1      W                0.000000       0.000000       0.000000              0.000000       0.000000       0.000000
--


++    Operator info:
      --------------


  Net charge from external field:   -4.0000000000000000     
--


            Nuclear Potential Energy              0.00000000 au

                    Nuclear-External Field Potential Energy    -223.73391656 au
                    External Field Potential Energy               2.82089977 au 


            Total Nuclear Potential Energy           -223.73391656 au


      Basis set specifications :
      Symmetry species         a  
      Basis functions          200

 Sorry, Molden does not know how to handle
 functions with angular momentum larger than g
Note: The following floating-point exceptions are signalling: IEEE_UNDERFLOW_FLAG IEEE_DENORMAL
--- Stop Module: seward at Fri Jan 10 02:32:57 2025 /rc=_RC_ALL_IS_WELL_ ---
*** files: tungsten_so_cf.GssOrb xmldump
    saved to directory /home4/s4752295/Internship/Initial_simulations/Point_charge_model/1_electron/active_space_9_non_rel/W/varying_bond_length
--- Module seward spent 18 seconds ---

*** symbolic link created: INPORB -> tungsten_so_cf.GssOrb
--- Start Module: scf at Fri Jan 10 02:32:57 2025 ---

()()()()()()()()()()()()()()()()()()()()()()()()()()()()()()()()()()()()()()()()()()()()()()()()()()

                                                &SCF

                                   only a single process is used
                       available to each process: 4.1 GB of memory, 1 thread?
                                            pid: 1099926
()()()()()()()()()()()()()()()()()()()()()()()()()()()()()()()()()()()()()()()()()()()()()()()()()()

++    Input section:
      --------------

      Header of the integral files:
      
       Integrals generated by seward 4.2.0  , Fri Jan 10 02:32:38 2025


      Cartesian coordinates in Angstrom:
      -----------------------------------------------------
      No.  Label        X            Y            Z        
      -----------------------------------------------------
       1   W          0.00000000   0.00000000   0.00000000
      -----------------------------------------------------
      Nuclear repulsion energy = -223.73391656
--

++    Orbital specifications:
      -----------------------

      Symmetry species               1
                                     a
      Frozen orbitals                0
      Occupied orbitals             34
      Secondary orbitals           166
      Deleted orbitals               0
      Total number of orbitals     200
      Number of basis functions    200
--

      Molecular charge                           6.000

++    Optimization specifications:
      ----------------------------

      SCF Algorithm: Conventional
      Minimized density differences are used
      Number of density matrices in core                5
      Maximum number of NDDO SCF iterations            50
      Maximum number of HF SCF iterations             100
      Threshold for SCF energy change            0.10E-08
      Threshold for density matrix               0.10E-03
      Threshold for Fock matrix                  0.15E-03
      Threshold for linear dependence            0.10E-08
      Threshold at which DIIS is turned on       0.15E+00
      Threshold at which QNR/C2DIIS is turned on 0.75E-01
      Threshold for Norm(delta) (QNR/C2DIIS)     0.20E-04
      DIIS extrapolation of the SCF procedure
      All orbitals punched on: SCFORB
--

      Detected guessorb starting orbitals                                             


++ Convergence information
                                   SCF        iterations: Energy and convergence statistics

Iter     Tot. SCF        One-elec.       Two-elec.     Energy      Max Dij or  Max Fij      DNorm      TNorm      AccCon     Time
         Energy          Energy          Energy        Change      Delta Norm                                                in Sec.

 The total and one-electron energies are shifted by a value of     16000. a.u.

   1  -139.905068556 -5709.490740442  5793.319588443   0.00E+00    0.10E+00*   0.23E+00*    0.12E+02   0.15E+04   None         1.
   2  -140.430969781 -5715.634202009  5798.937148784  -0.53E+00*   0.60E-01*   0.72E-01*    0.10E+01   0.15E+04   EDIIS        1.
   3  -140.453857832 -5703.838729248  5787.118787973  -0.23E-01*   0.12E-01*   0.35E-01*    0.25E+00   0.15E+04   EDIIS        1.
   4  -140.456061546 -5716.027941777  5799.305796788  -0.22E-02*   0.62E-02*   0.22E-01*    0.11E+00   0.15E+04   c2DIIS       1.
   5  -140.460731943 -5708.095107982  5791.368292596  -0.47E-02*   0.73E-02*   0.92E-02*    0.28E-01   0.15E+04   QNRc2DIIS    1.
   6  -140.460738442 -5711.347112708  5794.620290823  -0.65E-05*   0.36E-02*   0.98E-02*    0.43E-02   0.15E+04   QNRc2DIIS    1.
   7  -140.461065201 -5709.659473404  5792.932324760  -0.33E-03*   0.85E-03*   0.38E-03*    0.38E-03   0.15E+04   QNRc2DIIS    1.
   8  -140.461067411 -5709.639559164  5792.912408310  -0.22E-05*   0.11E-03*   0.20E-03*    0.77E-04   0.15E+04   QNRc2DIIS    1.
   9  -140.461067540 -5709.637951867  5792.910800885  -0.13E-06*   0.15E-04    0.56E-05     0.17E-03   0.15E+04   QNRc2DIIS    1.
  10  -140.461067541 -5709.638420047  5792.911269063  -0.81E-09    0.12E-05    0.11E-05     0.51E-03   0.15E+04   QNRc2DIIS    1.

       Convergence after 10 Macro Iterations
--

 *****************************************************************************************************************************
 *                                                                                                                           *
 *                                             SCF/KS-DFT Program, Final results                                             *
 *                                                                                                                           *
 *                                                                                                                           *
 *                                                                                                                           *
 *                                                       Final Results                                                       *
 *                                                                                                                           *
 *****************************************************************************************************************************

::    Total SCF energy                             -16140.4610675407
      One-electron energy                          -21709.6384200466
      Two-electron energy                            5792.9112690631
      Nuclear repulsion energy                       -223.7339165571
      Kinetic energy (interpolated)                 22638.5742365329
      Virial theorem                                    0.7129627908
      Total spin, S(S+1)                                0.0000000000
      Total spin, S                                     0.0000000000
      Max non-diagonal density matrix element           0.0000006371
      Max non-diagonal Fock matrix element              0.0000002625


      All orbitals with orbital energies smaller than  E(LUMO)+0.5 are printed

++    Molecular orbitals:
      -------------------

      Title: SCF orbitals

      Molecular orbitals for symmetry species 1: a  

          Some orbital energies have been scaled by powers of 10, the power is written right after the orbital index


          Orbital            1 (1)     2         3         4         5         6         7         8         9        10    
          Energy         -256.3898 -448.2161 -393.5589 -393.5589 -393.5576 -105.6740  -89.0878  -89.0878  -89.0803  -69.2198
          Occ. No.          2.0000    2.0000    2.0000    2.0000    2.0000    2.0000    2.0000    2.0000    2.0000    2.0000

        1 W      1s         1.0000    0.0000    0.0000    0.0000   -0.0000   -0.0000    0.0000   -0.0000    0.0000    0.0000
        2 W      2s        -0.0000    1.0000    0.0000   -0.0000   -0.0000    0.0000    0.0000   -0.0000   -0.0000   -0.0000
        3 W      3s         0.0000   -0.0000    0.0000    0.0000    0.0000    1.0000    0.0000   -0.0000   -0.0009   -0.0000
        4 W      4s        -0.0000    0.0000    0.0000   -0.0000   -0.0000   -0.0001   -0.0000    0.0000    0.0001    0.0000
        5 W      5s         0.0000   -0.0000   -0.0000    0.0000    0.0000    0.0000    0.0000   -0.0000   -0.0000    0.0000
        6 W      6s        -0.0000    0.0000    0.0000   -0.0000   -0.0000   -0.0000   -0.0000    0.0000    0.0000   -0.0000
        7 W      7s         0.0000   -0.0000    0.0000   -0.0000    0.0000    0.0000   -0.0000   -0.0000   -0.0000    0.0000
        8 W      8s        -0.0000    0.0000   -0.0000   -0.0000   -0.0000   -0.0000    0.0000    0.0000    0.0000   -0.0000
        9 W      9s         0.0000   -0.0000   -0.0000    0.0000    0.0000    0.0000    0.0000   -0.0000   -0.0000    0.0000
       10 W     10s        -0.0000    0.0000    0.0000   -0.0000   -0.0000   -0.0000   -0.0000    0.0000    0.0000   -0.0000
       11 W     11s         0.0000   -0.0000    0.0000    0.0000    0.0000    0.0000   -0.0000   -0.0000   -0.0000   -0.0000
       12 W      2px       -0.0000    0.0000    0.0016    1.0000    0.0000   -0.0000   -0.0000    0.0000    0.0000    0.0000
       13 W      3px        0.0000    0.0000   -0.0000   -0.0000   -0.0000    0.0000   -0.0120    0.9999    0.0000    0.0002
       14 W      4px        0.0000   -0.0000    0.0000    0.0000    0.0000    0.0000    0.0000   -0.0001   -0.0000    0.0000
       15 W      5px       -0.0000    0.0000   -0.0000   -0.0000   -0.0000   -0.0000   -0.0000    0.0001    0.0000   -0.0000
       16 W      6px        0.0000   -0.0000    0.0000    0.0000    0.0000    0.0000    0.0000   -0.0000   -0.0000    0.0000
       17 W      7px       -0.0000    0.0000   -0.0000   -0.0000   -0.0000   -0.0000   -0.0000    0.0001    0.0000   -0.0000
       18 W      8px        0.0000   -0.0000    0.0000    0.0000    0.0000    0.0000    0.0000   -0.0000   -0.0000    0.0000
       19 W      9px       -0.0000    0.0000   -0.0000   -0.0000   -0.0000   -0.0000   -0.0000    0.0000    0.0000   -0.0000
       20 W     10px        0.0000   -0.0000    0.0000    0.0000    0.0000    0.0000    0.0000   -0.0000   -0.0000    0.0000
       21 W     11px       -0.0000    0.0000   -0.0000   -0.0000   -0.0000   -0.0000   -0.0000    0.0000    0.0000   -0.0000
       22 W      2py        0.0000    0.0000    1.0000   -0.0016    0.0000   -0.0000    0.0000    0.0000   -0.0000   -0.0000
       23 W      3py       -0.0000   -0.0000   -0.0000    0.0000   -0.0000   -0.0000    0.9999    0.0120   -0.0000   -0.0000
       24 W      4py        0.0000    0.0000    0.0000   -0.0000    0.0000    0.0000   -0.0001   -0.0000    0.0000   -0.0000
       25 W      5py       -0.0000   -0.0000   -0.0000    0.0000   -0.0000   -0.0000    0.0001    0.0000   -0.0000    0.0000
       26 W      6py        0.0000    0.0000    0.0000   -0.0000    0.0000    0.0000   -0.0000   -0.0000   -0.0000   -0.0000
       27 W      7py       -0.0000   -0.0000   -0.0000    0.0000   -0.0000   -0.0000    0.0001    0.0000    0.0000    0.0000
       28 W      8py        0.0000    0.0000    0.0000   -0.0000    0.0000    0.0000   -0.0000   -0.0000    0.0000   -0.0000
       29 W      9py       -0.0000   -0.0000   -0.0000    0.0000   -0.0000   -0.0000    0.0000    0.0000   -0.0000    0.0000
       30 W     10py        0.0000    0.0000    0.0000   -0.0000    0.0000    0.0000   -0.0000   -0.0000    0.0000   -0.0000
       31 W     11py       -0.0000   -0.0000   -0.0000    0.0000   -0.0000   -0.0000    0.0000    0.0000    0.0000    0.0000
       32 W      2pz        0.0000    0.0000   -0.0000   -0.0000    1.0000   -0.0000    0.0000   -0.0000    0.0000    0.0000
       33 W      3pz       -0.0000    0.0000    0.0000    0.0000   -0.0000    0.0009    0.0000   -0.0000    1.0000    0.0000
       34 W      4pz        0.0000   -0.0000   -0.0000   -0.0000    0.0000    0.0000   -0.0000    0.0000   -0.0002   -0.0000
       35 W      5pz       -0.0000    0.0000    0.0000    0.0000   -0.0000   -0.0000    0.0000   -0.0000    0.0001   -0.0000
       36 W      6pz        0.0000   -0.0000   -0.0000   -0.0000    0.0000    0.0000   -0.0000    0.0000   -0.0000    0.0000
       37 W      7pz       -0.0000    0.0000    0.0000    0.0000   -0.0000   -0.0000    0.0000   -0.0000    0.0001   -0.0000
       38 W      8pz        0.0000   -0.0000   -0.0000   -0.0000    0.0000    0.0000   -0.0000    0.0000   -0.0001   -0.0000
       39 W      9pz       -0.0000    0.0000    0.0000    0.0000   -0.0000   -0.0000    0.0000   -0.0000    0.0001    0.0000
       40 W     10pz        0.0000   -0.0000   -0.0000   -0.0000    0.0000    0.0000   -0.0000    0.0000   -0.0000   -0.0000
       41 W     11pz       -0.0000    0.0000    0.0000    0.0000   -0.0000   -0.0000    0.0000   -0.0000    0.0001    0.0000
       42 W      3d2-       0.0000   -0.0000    0.0000   -0.0000    0.0000    0.0000    0.0001    0.0000   -0.0000    0.0000
       43 W      4d2-      -0.0000    0.0000    0.0000   -0.0000    0.0000   -0.0000   -0.0000   -0.0000   -0.0000   -0.0000
       44 W      5d2-      -0.0000   -0.0000    0.0000   -0.0000    0.0000   -0.0000   -0.0000   -0.0000    0.0000    0.0000
       45 W      6d2-       0.0000    0.0000   -0.0000    0.0000   -0.0000    0.0000    0.0000    0.0000   -0.0000   -0.0000
       46 W      7d2-      -0.0000   -0.0000    0.0000   -0.0000    0.0000   -0.0000   -0.0000   -0.0000    0.0000    0.0000
       47 W      8d2-       0.0000    0.0000   -0.0000    0.0000    0.0000    0.0000   -0.0000   -0.0000   -0.0000   -0.0000
       48 W      9d2-      -0.0000   -0.0000   -0.0000    0.0000   -0.0000   -0.0000    0.0000    0.0000    0.0000    0.0000
       49 W     10d2-       0.0000    0.0000    0.0000   -0.0000    0.0000    0.0000   -0.0000   -0.0000    0.0000   -0.0000
       50 W     11d2-      -0.0000   -0.0000   -0.0000    0.0000   -0.0000   -0.0000    0.0000    0.0000   -0.0000    0.0000
       51 W      3d1-      -0.0000    0.0000    0.0000   -0.0000    0.0000   -0.0000    0.0006    0.0000   -0.0000    0.0000
       52 W      4d1-      -0.0000    0.0000   -0.0000    0.0000   -0.0000    0.0000    0.0000    0.0000   -0.0000   -0.0000
       53 W      5d1-      -0.0000   -0.0000    0.0000   -0.0000    0.0000    0.0000   -0.0000   -0.0000    0.0000    0.0000
       54 W      6d1-       0.0000    0.0000   -0.0000    0.0000   -0.0000   -0.0000    0.0000    0.0000   -0.0000   -0.0000
       55 W      7d1-       0.0000   -0.0000    0.0000   -0.0000    0.0000   -0.0000   -0.0000   -0.0000    0.0000    0.0000
       56 W      8d1-      -0.0000    0.0000   -0.0000    0.0000   -0.0000    0.0000    0.0000    0.0000   -0.0000   -0.0000
       57 W      9d1-       0.0000    0.0000    0.0000   -0.0000    0.0000    0.0000   -0.0000   -0.0000    0.0000    0.0000
       58 W     10d1-      -0.0000   -0.0000   -0.0000    0.0000   -0.0000   -0.0000    0.0000    0.0000   -0.0000   -0.0000
       59 W     11d1-       0.0000    0.0000   -0.0000    0.0000   -0.0000    0.0000   -0.0000   -0.0000    0.0000    0.0000
       60 W      3d0       -0.0000   -0.0000   -0.0000   -0.0000    0.0000   -0.0002    0.0000   -0.0000    0.0005    0.0000
       61 W      4d0        0.0000    0.0000    0.0000    0.0000   -0.0000   -0.0000    0.0000   -0.0000    0.0001   -0.0000
       62 W      5d0       -0.0000   -0.0000    0.0000    0.0000   -0.0000    0.0000   -0.0000    0.0000   -0.0000    0.0000
       63 W      6d0        0.0000    0.0000    0.0000    0.0000   -0.0000   -0.0000    0.0000   -0.0000    0.0000   -0.0000
       64 W      7d0       -0.0000   -0.0000   -0.0000   -0.0000    0.0000    0.0000   -0.0000    0.0000   -0.0000    0.0000
       65 W      8d0        0.0000    0.0000    0.0000    0.0000   -0.0000   -0.0000    0.0000   -0.0000    0.0000   -0.0000
       66 W      9d0       -0.0000   -0.0000   -0.0000   -0.0000    0.0000    0.0000   -0.0000    0.0000   -0.0000    0.0000
       67 W     10d0        0.0000    0.0000    0.0000    0.0000   -0.0000   -0.0000    0.0000   -0.0000    0.0000   -0.0000
       68 W     11d0       -0.0000   -0.0000   -0.0000   -0.0000    0.0000    0.0000   -0.0000    0.0000   -0.0000    0.0000
       69 W      3d1+       0.0000   -0.0000    0.0000    0.0000    0.0000   -0.0000   -0.0000    0.0006    0.0000   -0.1643
       70 W      4d1+       0.0000    0.0000   -0.0000   -0.0000   -0.0000   -0.0000   -0.0000    0.0000    0.0000    0.0000
       71 W      5d1+       0.0000   -0.0000    0.0000    0.0000    0.0000    0.0000    0.0000   -0.0000   -0.0000   -0.0000
       72 W      6d1+      -0.0000    0.0000   -0.0000   -0.0000   -0.0000   -0.0000   -0.0000    0.0000    0.0000    0.0000
       73 W      7d1+       0.0000   -0.0000    0.0000    0.0000    0.0000    0.0000    0.0000   -0.0000   -0.0000   -0.0000
       74 W      8d1+       0.0000    0.0000   -0.0000   -0.0000   -0.0000   -0.0000   -0.0000    0.0000    0.0000    0.0000
       75 W      9d1+      -0.0000   -0.0000    0.0000    0.0000    0.0000    0.0000    0.0000   -0.0000   -0.0000   -0.0000
       76 W     10d1+       0.0000    0.0000   -0.0000   -0.0000   -0.0000   -0.0000   -0.0000    0.0000    0.0000    0.0000
       77 W     11d1+      -0.0000   -0.0000   -0.0000   -0.0000   -0.0000    0.0000    0.0000   -0.0000   -0.0000   -0.0000
       78 W      3d2+      -0.0000   -0.0000   -0.0000   -0.0000   -0.0000   -0.0000    0.0000   -0.0001   -0.0000    0.9864
       79 W      4d2+       0.0000    0.0000   -0.0000   -0.0000   -0.0000    0.0000   -0.0000    0.0000   -0.0000   -0.0001
       80 W      5d2+      -0.0000   -0.0000   -0.0000   -0.0000   -0.0000    0.0000   -0.0000    0.0000    0.0000    0.0000
       81 W      6d2+       0.0000    0.0000    0.0000    0.0000    0.0000    0.0000    0.0000   -0.0000   -0.0000   -0.0000
       82 W      7d2+      -0.0000   -0.0000   -0.0000   -0.0000    0.0000   -0.0000   -0.0000    0.0000    0.0000    0.0000
       83 W      8d2+       0.0000    0.0000    0.0000    0.0000   -0.0000    0.0000   -0.0000    0.0000   -0.0000   -0.0001
       84 W      9d2+      -0.0000   -0.0000    0.0000    0.0000    0.0000   -0.0000    0.0000   -0.0000    0.0000    0.0001
       85 W     10d2+       0.0000    0.0000   -0.0000   -0.0000   -0.0000    0.0000   -0.0000    0.0000   -0.0000   -0.0001
       86 W     11d2+      -0.0000   -0.0000    0.0000    0.0000    0.0000   -0.0000    0.0000   -0.0000   -0.0000    0.0000
       87 W      4f3-      -0.0000   -0.0000   -0.0000    0.0000   -0.0000   -0.0000   -0.0000   -0.0000   -0.0000    0.0000
       88 W      5f3-      -0.0000    0.0000    0.0000   -0.0000   -0.0000    0.0000    0.0000    0.0000    0.0000   -0.0000
       89 W      6f3-       0.0000   -0.0000   -0.0000    0.0000    0.0000    0.0000   -0.0000   -0.0000    0.0000    0.0000
       90 W      7f3-      -0.0000   -0.0000    0.0000   -0.0000   -0.0000   -0.0000    0.0000    0.0000    0.0000   -0.0000
       91 W      8f3-       0.0000    0.0000   -0.0000   -0.0000   -0.0000    0.0000   -0.0000   -0.0000   -0.0000    0.0000
       92 W      9f3-      -0.0000   -0.0000    0.0000    0.0000    0.0000   -0.0000    0.0000    0.0000    0.0000   -0.0000
       93 W     10f3-       0.0000    0.0000   -0.0000    0.0000   -0.0000    0.0000   -0.0000   -0.0000   -0.0000    0.0000
       94 W     11f3-      -0.0000   -0.0000    0.0000   -0.0000    0.0000   -0.0000    0.0000    0.0000    0.0000    0.0000
       95 W      4f2-       0.0000    0.0000   -0.0000    0.0000   -0.0000    0.0000   -0.0000   -0.0000    0.0000    0.0000
       96 W      5f2-       0.0000    0.0000    0.0000   -0.0000    0.0000   -0.0000    0.0000    0.0000   -0.0000   -0.0000
       97 W      6f2-       0.0000   -0.0000   -0.0000    0.0000   -0.0000   -0.0000   -0.0000   -0.0000    0.0000    0.0000
       98 W      7f2-      -0.0000   -0.0000   -0.0000    0.0000   -0.0000    0.0000    0.0000    0.0000   -0.0000   -0.0000
       99 W      8f2-       0.0000    0.0000    0.0000   -0.0000    0.0000   -0.0000   -0.0000   -0.0000    0.0000    0.0000
      100 W      9f2-      -0.0000   -0.0000   -0.0000    0.0000   -0.0000    0.0000    0.0000    0.0000   -0.0000   -0.0000
      101 W     10f2-       0.0000    0.0000    0.0000   -0.0000    0.0000   -0.0000   -0.0000   -0.0000    0.0000    0.0000
      102 W     11f2-      -0.0000   -0.0000   -0.0000    0.0000   -0.0000    0.0000    0.0000    0.0000   -0.0000   -0.0000
      103 W      4f1-       0.0000    0.0000   -0.0000    0.0000   -0.0000    0.0000   -0.0000   -0.0000    0.0000    0.0000
      104 W      5f1-       0.0000   -0.0000    0.0000   -0.0000    0.0000   -0.0000    0.0000    0.0000   -0.0000   -0.0000
      105 W      6f1-       0.0000    0.0000   -0.0000    0.0000   -0.0000    0.0000   -0.0000   -0.0000    0.0000    0.0000
      106 W      7f1-      -0.0000   -0.0000    0.0000   -0.0000    0.0000   -0.0000    0.0000    0.0000   -0.0000   -0.0000
      107 W      8f1-       0.0000    0.0000   -0.0000    0.0000   -0.0000    0.0000   -0.0000   -0.0000    0.0000    0.0000
      108 W      9f1-      -0.0000    0.0000    0.0000   -0.0000    0.0000   -0.0000    0.0000    0.0000   -0.0000   -0.0000
      109 W     10f1-      -0.0000   -0.0000   -0.0000    0.0000   -0.0000   -0.0000   -0.0000   -0.0000   -0.0000    0.0000
      110 W     11f1-       0.0000    0.0000    0.0000   -0.0000    0.0000    0.0000    0.0000    0.0000    0.0000   -0.0000
      111 W      4f0       -0.0000   -0.0000    0.0000    0.0000   -0.0000   -0.0000   -0.0000    0.0000   -0.0000    0.0000
      112 W      5f0        0.0000   -0.0000   -0.0000   -0.0000    0.0000    0.0000    0.0000   -0.0000    0.0000   -0.0000
      113 W      6f0       -0.0000   -0.0000    0.0000    0.0000   -0.0000   -0.0000   -0.0000    0.0000   -0.0000    0.0000
      114 W      7f0       -0.0000    0.0000   -0.0000   -0.0000    0.0000    0.0000    0.0000   -0.0000    0.0000   -0.0000
      115 W      8f0        0.0000   -0.0000    0.0000    0.0000   -0.0000    0.0000   -0.0000    0.0000   -0.0000    0.0000
      116 W      9f0       -0.0000    0.0000   -0.0000   -0.0000    0.0000   -0.0000    0.0000   -0.0000    0.0000   -0.0000
      117 W     10f0        0.0000   -0.0000    0.0000    0.0000   -0.0000    0.0000   -0.0000    0.0000   -0.0000    0.0000
      118 W     11f0       -0.0000    0.0000   -0.0000   -0.0000    0.0000   -0.0000    0.0000   -0.0000    0.0000   -0.0000
      119 W      4f1+       0.0000    0.0000   -0.0000   -0.0000   -0.0000    0.0000    0.0000   -0.0000   -0.0000   -0.0000
      120 W      5f1+      -0.0000    0.0000    0.0000    0.0000    0.0000   -0.0000   -0.0000    0.0000    0.0000    0.0000
      121 W      6f1+       0.0000   -0.0000   -0.0000   -0.0000   -0.0000    0.0000    0.0000   -0.0000   -0.0000   -0.0000
      122 W      7f1+       0.0000   -0.0000    0.0000    0.0000    0.0000   -0.0000   -0.0000    0.0000    0.0000    0.0000
      123 W      8f1+      -0.0000    0.0000   -0.0000   -0.0000   -0.0000   -0.0000    0.0000   -0.0000   -0.0000   -0.0000
      124 W      9f1+       0.0000   -0.0000    0.0000    0.0000    0.0000    0.0000   -0.0000    0.0000    0.0000    0.0000
      125 W     10f1+      -0.0000    0.0000   -0.0000   -0.0000   -0.0000   -0.0000    0.0000   -0.0000   -0.0000   -0.0000
      126 W     11f1+       0.0000   -0.0000    0.0000    0.0000    0.0000    0.0000   -0.0000    0.0000    0.0000    0.0000
      127 W      4f2+       0.0000   -0.0000    0.0000    0.0000    0.0000   -0.0000   -0.0000    0.0000    0.0000    0.0001
      128 W      5f2+      -0.0000    0.0000   -0.0000   -0.0000   -0.0000    0.0000    0.0000   -0.0000   -0.0000   -0.0001
      129 W      6f2+      -0.0000   -0.0000    0.0000    0.0000   -0.0000   -0.0000   -0.0000    0.0000    0.0000    0.0001
      130 W      7f2+       0.0000    0.0000    0.0000    0.0000    0.0000    0.0000    0.0000   -0.0000   -0.0000   -0.0001
      131 W      8f2+      -0.0000   -0.0000   -0.0000   -0.0000   -0.0000   -0.0000   -0.0000    0.0000    0.0000    0.0000
      132 W      9f2+       0.0000    0.0000    0.0000    0.0000    0.0000    0.0000    0.0000   -0.0000   -0.0000   -0.0000
      133 W     10f2+      -0.0000   -0.0000   -0.0000   -0.0000   -0.0000   -0.0000   -0.0000    0.0000    0.0000    0.0000
      134 W     11f2+       0.0000   -0.0000    0.0000    0.0000    0.0000    0.0000    0.0000   -0.0000   -0.0000   -0.0000
      135 W      4f3+      -0.0000   -0.0000    0.0000   -0.0000    0.0000   -0.0000   -0.0000    0.0000    0.0000    0.0000
      136 W      5f3+       0.0000   -0.0000    0.0000    0.0000   -0.0000    0.0000    0.0000   -0.0000    0.0000   -0.0000
      137 W      6f3+      -0.0000   -0.0000   -0.0000   -0.0000    0.0000   -0.0000   -0.0000    0.0000   -0.0000    0.0000
      138 W      7f3+      -0.0000    0.0000    0.0000    0.0000   -0.0000    0.0000    0.0000   -0.0000   -0.0000   -0.0000
      139 W      8f3+       0.0000   -0.0000   -0.0000   -0.0000   -0.0000    0.0000    0.0000   -0.0000    0.0000    0.0000
      140 W      9f3+      -0.0000    0.0000    0.0000    0.0000    0.0000   -0.0000   -0.0000    0.0000   -0.0000   -0.0000
      141 W     10f3+       0.0000   -0.0000   -0.0000   -0.0000   -0.0000    0.0000    0.0000   -0.0000    0.0000    0.0000
      142 W     11f3+      -0.0000    0.0000    0.0000    0.0000    0.0000   -0.0000   -0.0000    0.0000   -0.0000   -0.0000
      143 W      5g4-       0.0000    0.0000   -0.0000    0.0000   -0.0000   -0.0000   -0.0000   -0.0000    0.0000   -0.0000
      144 W      6g4-       0.0000    0.0000    0.0000   -0.0000   -0.0000   -0.0000    0.0000    0.0000   -0.0000    0.0000
      145 W      7g4-      -0.0000   -0.0000   -0.0000    0.0000   -0.0000    0.0000   -0.0000   -0.0000    0.0000   -0.0000
      146 W      8g4-      -0.0000   -0.0000    0.0000   -0.0000    0.0000    0.0000    0.0000    0.0000   -0.0000    0.0000
      147 W      5g3-      -0.0000    0.0000    0.0000   -0.0000    0.0000    0.0000   -0.0000   -0.0000   -0.0000   -0.0000
      148 W      6g3-      -0.0000   -0.0000   -0.0000    0.0000   -0.0000   -0.0000    0.0000    0.0000    0.0000    0.0000
      149 W      7g3-       0.0000    0.0000    0.0000   -0.0000    0.0000    0.0000   -0.0000   -0.0000   -0.0000   -0.0000
      150 W      8g3-       0.0000   -0.0000   -0.0000    0.0000   -0.0000   -0.0000    0.0000    0.0000    0.0000    0.0000
      151 W      5g2-       0.0000   -0.0000    0.0000   -0.0000    0.0000    0.0000   -0.0000   -0.0000    0.0000   -0.0000
      152 W      6g2-      -0.0000    0.0000   -0.0000    0.0000   -0.0000    0.0000    0.0000    0.0000   -0.0000    0.0000
      153 W      7g2-       0.0000   -0.0000    0.0000   -0.0000    0.0000   -0.0000   -0.0000   -0.0000    0.0000   -0.0000
      154 W      8g2-       0.0000    0.0000   -0.0000    0.0000   -0.0000    0.0000    0.0000    0.0000   -0.0000    0.0000
      155 W      5g1-       0.0000   -0.0000    0.0000   -0.0000    0.0000   -0.0000   -0.0000   -0.0000    0.0000   -0.0000
      156 W      6g1-       0.0000    0.0000   -0.0000    0.0000   -0.0000   -0.0000    0.0000    0.0000   -0.0000    0.0000
      157 W      7g1-       0.0000   -0.0000    0.0000   -0.0000    0.0000    0.0000   -0.0000   -0.0000    0.0000   -0.0000
      158 W      8g1-      -0.0000    0.0000   -0.0000    0.0000   -0.0000    0.0000    0.0000    0.0000   -0.0000    0.0000
      159 W      5g0        0.0000   -0.0000    0.0000   -0.0000   -0.0000    0.0000   -0.0000    0.0000   -0.0000   -0.0000
      160 W      6g0       -0.0000   -0.0000   -0.0000    0.0000    0.0000   -0.0000    0.0000   -0.0000    0.0000    0.0000
      161 W      7g0        0.0000    0.0000    0.0000   -0.0000   -0.0000    0.0000   -0.0000    0.0000   -0.0000   -0.0000
      162 W      8g0       -0.0000    0.0000   -0.0000    0.0000    0.0000    0.0000    0.0000   -0.0000    0.0000    0.0000
      163 W      5g1+      -0.0000    0.0000    0.0000    0.0000   -0.0000    0.0000    0.0000   -0.0000   -0.0000    0.0000
      164 W      6g1+       0.0000   -0.0000   -0.0000   -0.0000    0.0000   -0.0000   -0.0000    0.0000    0.0000   -0.0000
      165 W      7g1+      -0.0000    0.0000    0.0000    0.0000   -0.0000    0.0000    0.0000   -0.0000   -0.0000    0.0000
      166 W      8g1+       0.0000   -0.0000   -0.0000   -0.0000    0.0000   -0.0000   -0.0000    0.0000    0.0000   -0.0000
      167 W      5g2+      -0.0000    0.0000   -0.0000   -0.0000   -0.0000    0.0000   -0.0000    0.0000   -0.0000   -0.0000
      168 W      6g2+       0.0000   -0.0000    0.0000    0.0000    0.0000   -0.0000    0.0000   -0.0000   -0.0000    0.0000
      169 W      7g2+      -0.0000    0.0000   -0.0000   -0.0000   -0.0000    0.0000   -0.0000    0.0000    0.0000   -0.0000
      170 W      8g2+       0.0000   -0.0000    0.0000    0.0000    0.0000   -0.0000    0.0000   -0.0000   -0.0000    0.0000
      171 W      5g3+      -0.0000    0.0000    0.0000   -0.0000   -0.0000    0.0000   -0.0000    0.0000   -0.0000   -0.0000
      172 W      6g3+      -0.0000    0.0000   -0.0000    0.0000    0.0000   -0.0000    0.0000   -0.0000    0.0000    0.0000
      173 W      7g3+       0.0000    0.0000    0.0000   -0.0000   -0.0000    0.0000   -0.0000    0.0000   -0.0000   -0.0000
      174 W      8g3+       0.0000   -0.0000   -0.0000    0.0000    0.0000   -0.0000    0.0000   -0.0000   -0.0000    0.0000
      175 W      5g4+      -0.0000    0.0000   -0.0000   -0.0000   -0.0000    0.0000    0.0000   -0.0000   -0.0000    0.0000
      176 W      6g4+       0.0000   -0.0000    0.0000    0.0000    0.0000   -0.0000   -0.0000    0.0000    0.0000   -0.0000
      177 W      7g4+      -0.0000    0.0000   -0.0000   -0.0000   -0.0000    0.0000    0.0000   -0.0000   -0.0000    0.0000
      178 W      8g4+       0.0000   -0.0000    0.0000    0.0000    0.0000   -0.0000   -0.0000    0.0000    0.0000   -0.0000
      179 W      6h5-       0.0000   -0.0000   -0.0000    0.0000    0.0000    0.0000    0.0000    0.0000   -0.0000   -0.0000
      180 W      7h5-      -0.0000    0.0000    0.0000   -0.0000    0.0000    0.0000    0.0000    0.0000   -0.0000    0.0000
      181 W      6h4-      -0.0000   -0.0000    0.0000   -0.0000    0.0000    0.0000    0.0000    0.0000   -0.0000   -0.0000
      182 W      7h4-      -0.0000   -0.0000    0.0000   -0.0000    0.0000    0.0000   -0.0000   -0.0000    0.0000    0.0000
      183 W      6h3-       0.0000    0.0000    0.0000   -0.0000    0.0000    0.0000   -0.0000   -0.0000   -0.0000   -0.0000
      184 W      7h3-      -0.0000   -0.0000   -0.0000   -0.0000    0.0000   -0.0000   -0.0000   -0.0000   -0.0000    0.0000
      185 W      6h2-       0.0000   -0.0000   -0.0000    0.0000   -0.0000    0.0000    0.0000    0.0000   -0.0000   -0.0000
      186 W      7h2-      -0.0000    0.0000    0.0000   -0.0000    0.0000    0.0000   -0.0000   -0.0000    0.0000    0.0000
      187 W      6h1-      -0.0000   -0.0000   -0.0000    0.0000    0.0000    0.0000    0.0000    0.0000   -0.0000   -0.0000
      188 W      7h1-      -0.0000    0.0000    0.0000   -0.0000    0.0000    0.0000   -0.0000   -0.0000   -0.0000    0.0000
      189 W      6h0        0.0000   -0.0000   -0.0000   -0.0000    0.0000    0.0000   -0.0000    0.0000   -0.0000    0.0000
      190 W      7h0       -0.0000    0.0000    0.0000    0.0000   -0.0000   -0.0000    0.0000   -0.0000    0.0000    0.0000
      191 W      6h1+       0.0000   -0.0000   -0.0000   -0.0000   -0.0000   -0.0000   -0.0000    0.0000    0.0000    0.0000
      192 W      7h1+      -0.0000    0.0000    0.0000    0.0000    0.0000    0.0000    0.0000   -0.0000   -0.0000   -0.0000
      193 W      6h2+       0.0000   -0.0000    0.0000    0.0000    0.0000    0.0000    0.0000   -0.0000   -0.0000   -0.0000
      194 W      7h2+      -0.0000    0.0000   -0.0000   -0.0000   -0.0000   -0.0000   -0.0000    0.0000    0.0000    0.0000
      195 W      6h3+       0.0000   -0.0000   -0.0000   -0.0000    0.0000    0.0000   -0.0000    0.0000    0.0000    0.0000
      196 W      7h3+      -0.0000    0.0000   -0.0000    0.0000   -0.0000    0.0000   -0.0000    0.0000   -0.0000   -0.0000
      197 W      6h4+       0.0000   -0.0000    0.0000    0.0000   -0.0000   -0.0000   -0.0000    0.0000    0.0000    0.0000
      198 W      7h4+      -0.0000    0.0000    0.0000    0.0000    0.0000    0.0000    0.0000   -0.0000   -0.0000   -0.0000
      199 W      6h5+       0.0000   -0.0000    0.0000    0.0000    0.0000    0.0000    0.0000   -0.0000   -0.0000   -0.0000
      200 W      7h5+      -0.0000    0.0000   -0.0000   -0.0000   -0.0000   -0.0000    0.0000   -0.0000    0.0000    0.0000

          Orbital           11        12        13        14        15        16        17        18        19        20    
          Energy          -69.2198  -69.2160  -69.2160  -69.2154  -23.1152  -17.5499  -17.5499  -17.5206  -10.2039  -10.2039
          Occ. No.          2.0000    2.0000    2.0000    2.0000    2.0000    2.0000    2.0000    2.0000    2.0000    2.0000

        1 W      1s        -0.0000    0.0000   -0.0000    0.0000    0.0000    0.0000    0.0000   -0.0000   -0.0000   -0.0000
        2 W      2s         0.0000   -0.0000   -0.0000    0.0000   -0.0000    0.0000    0.0000    0.0000   -0.0000   -0.0000
        3 W      3s         0.0000   -0.0000   -0.0000    0.0002    0.0001   -0.0000   -0.0000   -0.0000   -0.0000    0.0000
        4 W      4s        -0.0000    0.0000    0.0000   -0.0000    1.0000   -0.0000   -0.0000   -0.0054   -0.0000    0.0000
        5 W      5s         0.0000   -0.0000   -0.0000    0.0000   -0.0012    0.0000    0.0000    0.0010    0.0000   -0.0000
        6 W      6s         0.0000    0.0000    0.0000    0.0000    0.0001   -0.0000   -0.0000   -0.0001    0.0000    0.0000
        7 W      7s        -0.0000    0.0000   -0.0000    0.0000   -0.0001    0.0000    0.0000    0.0001    0.0000   -0.0000
        8 W      8s         0.0000    0.0000    0.0000   -0.0000    0.0002   -0.0000   -0.0000   -0.0002   -0.0000    0.0000
        9 W      9s         0.0000   -0.0000   -0.0000    0.0000   -0.0001    0.0000    0.0000    0.0001   -0.0000    0.0000
       10 W     10s         0.0000    0.0000    0.0000   -0.0000   -0.0000   -0.0000   -0.0000   -0.0000    0.0000   -0.0000
       11 W     11s        -0.0000   -0.0000   -0.0000    0.0000   -0.0001   -0.0000   -0.0000    0.0000    0.0000   -0.0000
       12 W      2px       -0.0000   -0.0000   -0.0000   -0.0000    0.0000   -0.0000   -0.0000   -0.0000   -0.0000    0.0000
       13 W      3px       -0.0000   -0.0000   -0.0006   -0.0000   -0.0000    0.0001    0.0000    0.0000    0.0000   -0.0000
       14 W      4px       -0.0000    0.0000    0.0000    0.0000    0.0000    0.9999    0.0107    0.0000   -0.0000    0.0002
       15 W      5px        0.0000    0.0000    0.0000    0.0000    0.0000   -0.0009   -0.0000   -0.0000    0.0000   -0.0015
       16 W      6px       -0.0000   -0.0000   -0.0000   -0.0000   -0.0000    0.0003    0.0000    0.0000   -0.0000    0.0003
       17 W      7px        0.0000    0.0000    0.0000    0.0000    0.0000   -0.0004   -0.0000   -0.0000    0.0000   -0.0003
       18 W      8px       -0.0000    0.0000    0.0000   -0.0000   -0.0000    0.0001    0.0000    0.0000    0.0000   -0.0001
       19 W      9px        0.0000   -0.0000   -0.0000   -0.0000    0.0000    0.0001    0.0000    0.0000   -0.0000    0.0002
       20 W     10px       -0.0000    0.0000    0.0000    0.0000    0.0000   -0.0001   -0.0000   -0.0000    0.0000   -0.0001
       21 W     11px        0.0000   -0.0000   -0.0000    0.0000    0.0000   -0.0001   -0.0000   -0.0000    0.0000   -0.0000
       22 W      2py       -0.0000   -0.0000    0.0000   -0.0000   -0.0000    0.0000   -0.0000    0.0000   -0.0000   -0.0000
       23 W      3py       -0.0002   -0.0006    0.0000   -0.0000    0.0000   -0.0000    0.0001   -0.0000    0.0000    0.0000
       24 W      4py       -0.0000    0.0000   -0.0000    0.0000    0.0000   -0.0107    0.9999   -0.0000   -0.0002   -0.0000
       25 W      5py        0.0000    0.0000   -0.0000    0.0000   -0.0000    0.0000   -0.0009    0.0000    0.0015    0.0000
       26 W      6py       -0.0000   -0.0000    0.0000   -0.0000    0.0000   -0.0000    0.0003   -0.0000   -0.0003   -0.0000
       27 W      7py        0.0000    0.0000   -0.0000    0.0000   -0.0000    0.0000   -0.0004   -0.0000    0.0003    0.0000
       28 W      8py       -0.0000    0.0000   -0.0000   -0.0000    0.0000   -0.0000    0.0001    0.0000    0.0001    0.0000
       29 W      9py        0.0000   -0.0000    0.0000   -0.0000   -0.0000   -0.0000    0.0001    0.0000   -0.0002   -0.0000
       30 W     10py       -0.0000    0.0000   -0.0000    0.0000    0.0000    0.0000   -0.0001   -0.0000    0.0001    0.0000
       31 W     11py        0.0000   -0.0000    0.0000    0.0000   -0.0000    0.0000   -0.0001   -0.0000    0.0000    0.0000
       32 W      2pz       -0.0000    0.0000    0.0000   -0.0000    0.0000    0.0000    0.0000   -0.0000   -0.0000    0.0000
       33 W      3pz       -0.0000    0.0000    0.0000   -0.0005   -0.0001   -0.0000   -0.0000    0.0002    0.0000   -0.0000
       34 W      4pz       -0.0000   -0.0000   -0.0000    0.0001    0.0054   -0.0000   -0.0000    1.0000    0.0000   -0.0000
       35 W      5pz       -0.0000    0.0000    0.0000   -0.0000    0.0002    0.0000    0.0000   -0.0021    0.0000    0.0000
       36 W      6pz       -0.0000   -0.0000   -0.0000    0.0000   -0.0001   -0.0000   -0.0000    0.0006   -0.0000   -0.0000
       37 W      7pz        0.0000    0.0000    0.0000   -0.0000    0.0001    0.0000    0.0000   -0.0010    0.0000    0.0000
       38 W      8pz       -0.0000   -0.0000   -0.0000    0.0000   -0.0001   -0.0000   -0.0000    0.0003    0.0000    0.0000
       39 W      9pz       -0.0000    0.0000    0.0000   -0.0000    0.0000   -0.0000   -0.0000    0.0001   -0.0000   -0.0000
       40 W     10pz       -0.0000   -0.0000   -0.0000    0.0000   -0.0000   -0.0000   -0.0000   -0.0001   -0.0000   -0.0000
       41 W     11pz        0.0000    0.0000    0.0000   -0.0000    0.0000    0.0000    0.0000   -0.0001   -0.0000    0.0000
       42 W      3d2-       0.9864   -0.1643    0.0000   -0.0000    0.0000   -0.0000    0.0000    0.0000    0.0001    0.0000
       43 W      4d2-      -0.0001    0.0000   -0.0000    0.0000    0.0000   -0.0000    0.0026   -0.0000    0.9280    0.0000
       44 W      5d2-       0.0000   -0.0000    0.0000   -0.0000    0.0000   -0.0000    0.0006   -0.0000   -0.0004   -0.0000
       45 W      6d2-      -0.0000    0.0000   -0.0000    0.0000   -0.0000    0.0000   -0.0006    0.0000    0.0005    0.0000
       46 W      7d2-       0.0000   -0.0000    0.0000   -0.0000    0.0000   -0.0000    0.0005   -0.0000   -0.0004   -0.0000
       47 W      8d2-      -0.0001    0.0000   -0.0000    0.0000   -0.0000    0.0000   -0.0001   -0.0000    0.0001    0.0000
       48 W      9d2-       0.0001   -0.0000    0.0000   -0.0000    0.0000    0.0000   -0.0001    0.0000    0.0001    0.0000
       49 W     10d2-      -0.0001    0.0000   -0.0000    0.0000   -0.0000   -0.0000    0.0001    0.0000    0.0000    0.0000
       50 W     11d2-       0.0000   -0.0000    0.0000   -0.0000   -0.0000   -0.0000    0.0000   -0.0000   -0.0001   -0.0000
       51 W      3d1-       0.1643    0.9864   -0.0000    0.0000   -0.0000    0.0000   -0.0000    0.0000   -0.0001   -0.0000
       52 W      4d1-      -0.0000   -0.0002    0.0000   -0.0000   -0.0000   -0.0001    0.0058   -0.0000   -0.3724   -0.0000
       53 W      5d1-       0.0000    0.0000   -0.0000    0.0000    0.0000   -0.0000    0.0007   -0.0000   -0.0006   -0.0000
       54 W      6d1-      -0.0000   -0.0000    0.0000   -0.0000   -0.0000    0.0000   -0.0007    0.0000    0.0006    0.0000
       55 W      7d1-       0.0000    0.0001   -0.0000    0.0000    0.0000   -0.0000    0.0006   -0.0000   -0.0003   -0.0000
       56 W      8d1-      -0.0000   -0.0001    0.0000   -0.0000   -0.0000    0.0000   -0.0002    0.0000   -0.0000   -0.0000
       57 W      9d1-       0.0000    0.0001   -0.0000    0.0000    0.0000    0.0000   -0.0000    0.0000    0.0001    0.0000
       58 W     10d1-      -0.0000   -0.0001    0.0000   -0.0000   -0.0000   -0.0000    0.0001   -0.0000   -0.0000   -0.0000
       59 W     11d1-       0.0000    0.0001   -0.0000    0.0000    0.0000   -0.0000    0.0001   -0.0000    0.0000    0.0000
       60 W      3d0        0.0000   -0.0000   -0.0000    1.0000    0.0000    0.0000    0.0000   -0.0001    0.0000    0.0000
       61 W      4d0        0.0000    0.0000    0.0000   -0.0002   -0.0017   -0.0000   -0.0000   -0.0002    0.0000   -0.0000
       62 W      5d0       -0.0000   -0.0000   -0.0000    0.0000   -0.0001    0.0000    0.0000   -0.0008   -0.0000    0.0000
       63 W      6d0       -0.0000    0.0000    0.0000   -0.0000    0.0002   -0.0000   -0.0000    0.0008    0.0000   -0.0000
       64 W      7d0        0.0000   -0.0000   -0.0000    0.0001   -0.0002    0.0000    0.0000   -0.0006   -0.0000    0.0000
       65 W      8d0       -0.0000    0.0000    0.0000   -0.0001    0.0001   -0.0000   -0.0000    0.0001   -0.0000    0.0000
       66 W      9d0        0.0000   -0.0000   -0.0000    0.0001   -0.0001   -0.0000   -0.0000    0.0001    0.0000   -0.0000
       67 W     10d0        0.0000    0.0000    0.0000   -0.0001    0.0000    0.0000    0.0000   -0.0002   -0.0000   -0.0000
       68 W     11d0        0.0000   -0.0000   -0.0000    0.0001   -0.0000   -0.0000   -0.0000    0.0000   -0.0000    0.0000
       69 W      3d1+       0.0000    0.0000    0.9864    0.0000    0.0000   -0.0000   -0.0000   -0.0000   -0.0000    0.0001
       70 W      4d1+      -0.0000   -0.0000   -0.0002   -0.0000   -0.0000    0.0058    0.0001    0.0000   -0.0000    0.3724
       71 W      5d1+       0.0000    0.0000    0.0000    0.0000   -0.0000    0.0007    0.0000    0.0000   -0.0000    0.0006
       72 W      6d1+      -0.0000   -0.0000   -0.0000   -0.0000    0.0000   -0.0007   -0.0000   -0.0000    0.0000   -0.0006
       73 W      7d1+       0.0000    0.0000    0.0001    0.0000   -0.0000    0.0006    0.0000    0.0000   -0.0000    0.0003
       74 W      8d1+      -0.0000   -0.0000   -0.0001   -0.0000    0.0000   -0.0002   -0.0000   -0.0000   -0.0000    0.0000
       75 W      9d1+       0.0000    0.0000    0.0001    0.0000   -0.0000   -0.0000   -0.0000    0.0000    0.0000   -0.0001
       76 W     10d1+      -0.0000   -0.0000   -0.0001   -0.0000   -0.0000    0.0001    0.0000    0.0000   -0.0000    0.0000
       77 W     11d1+       0.0000    0.0000    0.0001    0.0000   -0.0000    0.0001    0.0000    0.0000    0.0000   -0.0000
       78 W      3d2+      -0.0000    0.0000    0.1643    0.0000    0.0000   -0.0000   -0.0000   -0.0000   -0.0000    0.0001
       79 W      4d2+       0.0000   -0.0000   -0.0000   -0.0000   -0.0000   -0.0026   -0.0000   -0.0000   -0.0000    0.9280
       80 W      5d2+      -0.0000    0.0000    0.0000    0.0000   -0.0000   -0.0006   -0.0000   -0.0000    0.0000   -0.0004
       81 W      6d2+       0.0000   -0.0000   -0.0000   -0.0000    0.0000    0.0006    0.0000    0.0000   -0.0000    0.0005
       82 W      7d2+      -0.0000    0.0000    0.0000    0.0000    0.0000   -0.0005   -0.0000   -0.0000    0.0000   -0.0004
       83 W      8d2+       0.0000   -0.0000   -0.0000   -0.0000   -0.0000    0.0001    0.0000    0.0000   -0.0000    0.0001
       84 W      9d2+      -0.0000    0.0000    0.0000    0.0000    0.0000    0.0001    0.0000   -0.0000   -0.0000    0.0001
       85 W     10d2+       0.0000   -0.0000   -0.0000   -0.0000    0.0000   -0.0001   -0.0000   -0.0000   -0.0000    0.0000
       86 W     11d2+      -0.0000    0.0000    0.0000    0.0000    0.0000   -0.0000   -0.0000   -0.0000    0.0000   -0.0001
       87 W      4f3-       0.0000   -0.0000    0.0000    0.0000    0.0000    0.0000   -0.0000   -0.0000    0.0000    0.0000
       88 W      5f3-      -0.0000    0.0000   -0.0000   -0.0000   -0.0000    0.0000   -0.0000   -0.0000    0.0000    0.0000
       89 W      6f3-       0.0000   -0.0000    0.0000    0.0000    0.0000   -0.0000    0.0000    0.0000   -0.0000   -0.0000
       90 W      7f3-      -0.0000    0.0000    0.0000   -0.0000   -0.0000    0.0000   -0.0000   -0.0000    0.0000    0.0000
       91 W      8f3-       0.0000   -0.0000   -0.0000   -0.0000    0.0000    0.0000   -0.0000    0.0000    0.0000   -0.0000
       92 W      9f3-      -0.0000    0.0000    0.0000    0.0000   -0.0000   -0.0000    0.0000   -0.0000   -0.0000    0.0000
       93 W     10f3-       0.0000    0.0000   -0.0000    0.0000    0.0000   -0.0000    0.0000    0.0000   -0.0000   -0.0000
       94 W     11f3-      -0.0000   -0.0000    0.0000   -0.0000   -0.0000   -0.0000    0.0000   -0.0000    0.0000    0.0000
       95 W      4f2-       0.0001    0.0000   -0.0000   -0.0000   -0.0000    0.0000   -0.0009    0.0000    0.0045    0.0000
       96 W      5f2-      -0.0001    0.0000   -0.0000    0.0000   -0.0000    0.0000   -0.0005    0.0000    0.0017    0.0000
       97 W      6f2-       0.0001   -0.0000    0.0000   -0.0000    0.0000   -0.0000    0.0004   -0.0000   -0.0011   -0.0000
       98 W      7f2-      -0.0001    0.0000   -0.0000    0.0000    0.0000    0.0000   -0.0001    0.0000    0.0001    0.0000
       99 W      8f2-       0.0000    0.0000   -0.0000    0.0000   -0.0000    0.0000   -0.0002    0.0000    0.0004    0.0000
      100 W      9f2-      -0.0000   -0.0000    0.0000   -0.0000    0.0000   -0.0000    0.0001   -0.0000   -0.0000   -0.0000
      101 W     10f2-       0.0000    0.0000   -0.0000    0.0000   -0.0000   -0.0000    0.0001   -0.0000   -0.0002   -0.0000
      102 W     11f2-      -0.0000   -0.0000    0.0000   -0.0000    0.0000   -0.0000    0.0000   -0.0000   -0.0000   -0.0000
      103 W      4f1-       0.0000    0.0001   -0.0000    0.0000    0.0000    0.0000   -0.0011    0.0000   -0.0016   -0.0000
      104 W      5f1-      -0.0000   -0.0001    0.0000   -0.0000   -0.0000    0.0000   -0.0001    0.0000   -0.0002   -0.0000
      105 W      6f1-       0.0000    0.0001   -0.0000    0.0000    0.0000   -0.0000    0.0002   -0.0000    0.0002    0.0000
      106 W      7f1-      -0.0000   -0.0000    0.0000   -0.0000   -0.0000    0.0000   -0.0001    0.0000   -0.0001   -0.0000
      107 W      8f1-       0.0000    0.0000   -0.0000    0.0000    0.0000   -0.0000    0.0000    0.0000   -0.0000   -0.0000
      108 W      9f1-      -0.0000   -0.0000    0.0000   -0.0000   -0.0000   -0.0000    0.0000   -0.0000   -0.0000   -0.0000
      109 W     10f1-       0.0000    0.0000   -0.0000    0.0000    0.0000   -0.0000    0.0000   -0.0000    0.0000    0.0000
      110 W     11f1-      -0.0000   -0.0000    0.0000   -0.0000   -0.0000    0.0000   -0.0000    0.0000   -0.0000   -0.0000
      111 W      4f0       -0.0000   -0.0000   -0.0000    0.0001   -0.0016    0.0000    0.0000   -0.0015   -0.0000   -0.0000
      112 W      5f0       -0.0000    0.0000    0.0000   -0.0001   -0.0004    0.0000    0.0000   -0.0003   -0.0000   -0.0000
      113 W      6f0        0.0000   -0.0000   -0.0000    0.0001    0.0004   -0.0000   -0.0000    0.0003    0.0000    0.0000
      114 W      7f0        0.0000    0.0000    0.0000   -0.0000   -0.0002    0.0000    0.0000   -0.0002    0.0000    0.0000
      115 W      8f0       -0.0000   -0.0000   -0.0000    0.0000   -0.0001    0.0000    0.0000   -0.0000   -0.0000   -0.0000
      116 W      9f0        0.0000    0.0000    0.0000   -0.0000    0.0001   -0.0000   -0.0000    0.0000    0.0000   -0.0000
      117 W     10f0       -0.0000   -0.0000   -0.0000    0.0000    0.0000   -0.0000   -0.0000    0.0000   -0.0000    0.0000
      118 W     11f0        0.0000    0.0000    0.0000    0.0000   -0.0000    0.0000    0.0000   -0.0000    0.0000    0.0000
      119 W      4f1+       0.0000    0.0000    0.0001    0.0000    0.0000   -0.0011   -0.0000   -0.0000   -0.0000    0.0016
      120 W      5f1+      -0.0000   -0.0000   -0.0001   -0.0000    0.0000   -0.0001   -0.0000   -0.0000   -0.0000    0.0002
      121 W      6f1+       0.0000    0.0000    0.0001    0.0000   -0.0000    0.0002    0.0000    0.0000    0.0000   -0.0002
      122 W      7f1+      -0.0000   -0.0000   -0.0000   -0.0000    0.0000   -0.0001   -0.0000   -0.0000   -0.0000    0.0001
      123 W      8f1+       0.0000    0.0000    0.0000    0.0000    0.0000    0.0000    0.0000    0.0000   -0.0000    0.0000
      124 W      9f1+      -0.0000   -0.0000   -0.0000   -0.0000   -0.0000    0.0000    0.0000    0.0000   -0.0000    0.0000
      125 W     10f1+       0.0000    0.0000    0.0000    0.0000   -0.0000    0.0000    0.0000    0.0000    0.0000   -0.0000
      126 W     11f1+      -0.0000   -0.0000   -0.0000   -0.0000    0.0000   -0.0000   -0.0000   -0.0000   -0.0000    0.0000
      127 W      4f2+      -0.0000   -0.0000   -0.0000   -0.0000   -0.0000    0.0009    0.0000    0.0000   -0.0000    0.0045
      128 W      5f2+       0.0000   -0.0000   -0.0000   -0.0000   -0.0000    0.0005    0.0000    0.0000   -0.0000    0.0017
      129 W      6f2+      -0.0000    0.0000    0.0000    0.0000    0.0000   -0.0004   -0.0000   -0.0000    0.0000   -0.0011
      130 W      7f2+       0.0000   -0.0000   -0.0000    0.0000   -0.0000    0.0001    0.0000    0.0000   -0.0000    0.0001
      131 W      8f2+      -0.0000   -0.0000   -0.0000   -0.0000    0.0000    0.0002    0.0000    0.0000   -0.0000    0.0004
      132 W      9f2+       0.0000    0.0000    0.0000    0.0000    0.0000   -0.0001   -0.0000   -0.0000    0.0000   -0.0000
      133 W     10f2+      -0.0000   -0.0000   -0.0000   -0.0000   -0.0000   -0.0001   -0.0000   -0.0000    0.0000   -0.0002
      134 W     11f2+       0.0000    0.0000    0.0000    0.0000   -0.0000   -0.0000   -0.0000    0.0000    0.0000   -0.0000
      135 W      4f3+      -0.0000   -0.0000   -0.0000    0.0000   -0.0011   -0.0000   -0.0000    0.0008   -0.0000    0.0000
      136 W      5f3+       0.0000    0.0000    0.0000   -0.0000   -0.0002   -0.0000   -0.0000    0.0004    0.0000   -0.0000
      137 W      6f3+      -0.0000   -0.0000   -0.0000    0.0000    0.0003    0.0000    0.0000   -0.0004   -0.0000   -0.0000
      138 W      7f3+       0.0000    0.0000    0.0000   -0.0000   -0.0001    0.0000    0.0000    0.0001   -0.0000    0.0000
      139 W      8f3+      -0.0000   -0.0000   -0.0000    0.0000   -0.0001   -0.0000   -0.0000    0.0001    0.0000   -0.0000
      140 W      9f3+       0.0000   -0.0000    0.0000   -0.0000    0.0000   -0.0000   -0.0000   -0.0001    0.0000   -0.0000
      141 W     10f3+      -0.0000    0.0000   -0.0000   -0.0000    0.0000    0.0000    0.0000   -0.0000   -0.0000   -0.0000
      142 W     11f3+       0.0000   -0.0000    0.0000    0.0000   -0.0000    0.0000    0.0000   -0.0000    0.0000    0.0000
      143 W      5g4-      -0.0000    0.0000   -0.0000    0.0000   -0.0000    0.0000   -0.0010    0.0000   -0.0001   -0.0000
      144 W      6g4-       0.0000    0.0000   -0.0000    0.0000   -0.0000    0.0000   -0.0001    0.0000    0.0001    0.0000
      145 W      7g4-      -0.0000   -0.0000    0.0000   -0.0000    0.0000   -0.0000    0.0002   -0.0000   -0.0000   -0.0000
      146 W      8g4-       0.0000    0.0000   -0.0000    0.0000    0.0000    0.0000   -0.0001    0.0000   -0.0000   -0.0000
      147 W      5g3-      -0.0000   -0.0000    0.0000    0.0000    0.0000   -0.0000    0.0000   -0.0000   -0.0000   -0.0000
      148 W      6g3-       0.0000   -0.0000    0.0000   -0.0000   -0.0000   -0.0000    0.0000    0.0000    0.0000    0.0000
      149 W      7g3-      -0.0000    0.0000    0.0000    0.0000    0.0000    0.0000   -0.0000   -0.0000    0.0000    0.0000
      150 W      8g3-       0.0000   -0.0000    0.0000   -0.0000   -0.0000   -0.0000    0.0000    0.0000   -0.0000   -0.0000
      151 W      5g2-      -0.0000   -0.0000    0.0000   -0.0000    0.0000   -0.0000    0.0001   -0.0000   -0.0007   -0.0000
      152 W      6g2-       0.0000   -0.0000    0.0000   -0.0000    0.0000   -0.0000    0.0001   -0.0000   -0.0000   -0.0000
      153 W      7g2-      -0.0000    0.0000   -0.0000    0.0000   -0.0000    0.0000   -0.0001    0.0000    0.0001    0.0000
      154 W      8g2-       0.0000   -0.0000    0.0000   -0.0000    0.0000   -0.0000    0.0000   -0.0000   -0.0000   -0.0000
      155 W      5g1-      -0.0000   -0.0000    0.0000   -0.0000   -0.0000    0.0000   -0.0011    0.0000    0.0013    0.0000
      156 W      6g1-       0.0000    0.0000   -0.0000    0.0000   -0.0000    0.0000   -0.0001    0.0000    0.0003    0.0000
      157 W      7g1-      -0.0000   -0.0000    0.0000   -0.0000   -0.0000   -0.0000    0.0003   -0.0000   -0.0004   -0.0000
      158 W      8g1-       0.0000    0.0000   -0.0000    0.0000    0.0000    0.0000   -0.0002    0.0000    0.0001    0.0000
      159 W      5g0       -0.0000    0.0000    0.0000   -0.0000   -0.0001    0.0000    0.0000   -0.0018   -0.0000    0.0000
      160 W      6g0        0.0000   -0.0000   -0.0000    0.0000    0.0000    0.0000    0.0000   -0.0002    0.0000   -0.0000
      161 W      7g0        0.0000    0.0000    0.0000   -0.0000    0.0000   -0.0000   -0.0000    0.0006    0.0000   -0.0000
      162 W      8g0       -0.0000   -0.0000   -0.0000    0.0000   -0.0000    0.0000    0.0000   -0.0003   -0.0000    0.0000
      163 W      5g1+      -0.0000   -0.0000   -0.0000   -0.0000    0.0000   -0.0011   -0.0000   -0.0000    0.0000   -0.0013
      164 W      6g1+       0.0000    0.0000    0.0000    0.0000   -0.0000   -0.0001   -0.0000   -0.0000    0.0000   -0.0003
      165 W      7g1+      -0.0000   -0.0000   -0.0000   -0.0000   -0.0000    0.0003    0.0000    0.0000   -0.0000    0.0004
      166 W      8g1+       0.0000    0.0000    0.0000    0.0000    0.0000   -0.0002   -0.0000   -0.0000    0.0000   -0.0001
      167 W      5g2+       0.0000    0.0000    0.0000    0.0000    0.0000   -0.0001   -0.0000   -0.0000    0.0000   -0.0007
      168 W      6g2+      -0.0000    0.0000    0.0000    0.0000   -0.0000   -0.0001   -0.0000   -0.0000    0.0000   -0.0000
      169 W      7g2+       0.0000   -0.0000   -0.0000   -0.0000   -0.0000    0.0001    0.0000    0.0000   -0.0000    0.0001
      170 W      8g2+      -0.0000    0.0000    0.0000    0.0000    0.0000   -0.0000   -0.0000   -0.0000    0.0000   -0.0000
      171 W      5g3+       0.0000   -0.0000    0.0000    0.0000    0.0007    0.0000    0.0000   -0.0010    0.0000   -0.0000
      172 W      6g3+      -0.0000    0.0000    0.0000   -0.0000    0.0000    0.0000    0.0000   -0.0002   -0.0000    0.0000
      173 W      7g3+       0.0000   -0.0000   -0.0000    0.0000   -0.0002   -0.0000   -0.0000    0.0003   -0.0000    0.0000
      174 W      8g3+      -0.0000    0.0000    0.0000   -0.0000    0.0001   -0.0000   -0.0000   -0.0002    0.0000   -0.0000
      175 W      5g4+      -0.0000    0.0000    0.0000    0.0000    0.0000   -0.0010   -0.0000   -0.0000   -0.0000    0.0001
      176 W      6g4+       0.0000    0.0000    0.0000    0.0000   -0.0000   -0.0001   -0.0000   -0.0000    0.0000   -0.0001
      177 W      7g4+      -0.0000   -0.0000   -0.0000   -0.0000   -0.0000    0.0002    0.0000    0.0000   -0.0000    0.0000
      178 W      8g4+       0.0000    0.0000    0.0000    0.0000    0.0000   -0.0001   -0.0000   -0.0000   -0.0000    0.0000
      179 W      6h5-      -0.0000   -0.0000    0.0000   -0.0000    0.0000   -0.0000    0.0002   -0.0000   -0.0013   -0.0000
      180 W      7h5-       0.0000   -0.0000    0.0000   -0.0000    0.0000    0.0000   -0.0000   -0.0000    0.0002    0.0000
      181 W      6h4-      -0.0000   -0.0000    0.0000   -0.0000    0.0000   -0.0000    0.0007   -0.0000    0.0002    0.0000
      182 W      7h4-       0.0000    0.0000   -0.0000    0.0000    0.0000    0.0000   -0.0002    0.0000   -0.0001   -0.0000
      183 W      6h3-       0.0000    0.0000   -0.0000   -0.0000    0.0000    0.0000   -0.0000    0.0000    0.0000    0.0000
      184 W      7h3-      -0.0000    0.0000    0.0000    0.0000    0.0000    0.0000   -0.0000   -0.0000   -0.0000   -0.0000
      185 W      6h2-      -0.0000   -0.0000    0.0000   -0.0000    0.0000   -0.0000    0.0002   -0.0000   -0.0010   -0.0000
      186 W      7h2-       0.0000    0.0000   -0.0000    0.0000    0.0000    0.0000   -0.0001    0.0000    0.0002    0.0000
      187 W      6h1-      -0.0000   -0.0000    0.0000   -0.0000    0.0000   -0.0000    0.0002   -0.0000    0.0004    0.0000
      188 W      7h1-       0.0000    0.0000   -0.0000    0.0000    0.0000    0.0000   -0.0000    0.0000   -0.0001   -0.0000
      189 W      6h0       -0.0000    0.0000    0.0000   -0.0000   -0.0001    0.0000    0.0000   -0.0004   -0.0000    0.0000
      190 W      7h0        0.0000   -0.0000   -0.0000    0.0000    0.0000   -0.0000   -0.0000    0.0001   -0.0000    0.0000
      191 W      6h1+      -0.0000   -0.0000   -0.0000   -0.0000   -0.0000    0.0002    0.0000    0.0000    0.0000   -0.0004
      192 W      7h1+       0.0000    0.0000    0.0000    0.0000    0.0000   -0.0000   -0.0000   -0.0000   -0.0000    0.0001
      193 W      6h2+       0.0000    0.0000    0.0000    0.0000   -0.0000   -0.0002   -0.0000   -0.0000    0.0000   -0.0010
      194 W      7h2+      -0.0000   -0.0000   -0.0000    0.0000   -0.0000    0.0001    0.0000    0.0000   -0.0000    0.0002
      195 W      6h3+       0.0000    0.0000   -0.0000    0.0000   -0.0002   -0.0000   -0.0000    0.0006   -0.0000    0.0000
      196 W      7h3+       0.0000   -0.0000   -0.0000    0.0000    0.0001    0.0000    0.0000   -0.0002    0.0000   -0.0000
      197 W      6h4+      -0.0000   -0.0000   -0.0000   -0.0000   -0.0000    0.0007    0.0000    0.0000    0.0000   -0.0002
      198 W      7h4+       0.0000    0.0000    0.0000    0.0000    0.0000   -0.0002   -0.0000   -0.0000   -0.0000    0.0001
      199 W      6h5+       0.0000    0.0000    0.0000    0.0000   -0.0000   -0.0002   -0.0000   -0.0000    0.0000   -0.0013
      200 W      7h5+      -0.0000    0.0000    0.0000    0.0000   -0.0000    0.0000    0.0000    0.0000   -0.0000    0.0002

          Orbital           21        22        23        24        25        26        27        28        29        30    
          Energy          -10.1727  -10.1727  -10.1686   -3.4842   -2.0824   -2.0824   -2.0432   -2.0235   -1.9976   -1.9976
          Occ. No.          2.0000    2.0000    2.0000    2.0000    2.0000    2.0000    2.0000    2.0000    2.0000    2.0000

        1 W      1s         0.0000    0.0000   -0.0000    0.0000   -0.0000   -0.0000    0.0000    0.0000   -0.0000   -0.0000
        2 W      2s         0.0000   -0.0000   -0.0000   -0.0000   -0.0000   -0.0000   -0.0000   -0.0000   -0.0000    0.0000
        3 W      3s        -0.0000    0.0000    0.0000    0.0000    0.0000    0.0000    0.0000    0.0000   -0.0000    0.0000
        4 W      4s        -0.0000    0.0000    0.0017   -0.0010   -0.0000    0.0000    0.0002    0.0000   -0.0000   -0.0000
        5 W      5s         0.0000   -0.0000   -0.0037   -0.9909   -0.0000    0.0000   -0.0097    0.0000   -0.0000   -0.0000
        6 W      6s        -0.0000    0.0000    0.0004   -0.0208    0.0000   -0.0000    0.0019    0.0000    0.0000    0.0000
        7 W      7s         0.0000   -0.0000   -0.0004    0.0097    0.0000    0.0000   -0.0015    0.0000    0.0000   -0.0000
        8 W      8s         0.0000    0.0000    0.0005   -0.0066   -0.0000   -0.0000    0.0018    0.0000   -0.0000    0.0000
        9 W      9s        -0.0000    0.0000   -0.0001   -0.0058   -0.0000    0.0000   -0.0005   -0.0000   -0.0000   -0.0000
       10 W     10s         0.0000   -0.0000   -0.0002    0.0056    0.0000    0.0000   -0.0003   -0.0000    0.0000   -0.0000
       11 W     11s         0.0000   -0.0000   -0.0000    0.0018    0.0000    0.0000   -0.0000   -0.0000    0.0000    0.0000
       12 W      2px        0.0000   -0.0000    0.0000    0.0000    0.0000    0.0000    0.0000    0.0000   -0.0000   -0.0000
       13 W      3px       -0.0000    0.0000   -0.0000   -0.0000   -0.0000   -0.0001   -0.0000   -0.0000    0.0000    0.0000
       14 W      4px       -0.0063    0.0000   -0.0000    0.0000    0.0000    0.0001    0.0000    0.0000    0.0000    0.0003
       15 W      5px        0.0066   -0.0000    0.0000   -0.0000    0.0000    0.8817    0.0000    0.0000   -0.0000   -0.0791
       16 W      6px       -0.0013    0.0000   -0.0000    0.0000    0.0000    0.0243    0.0000    0.0000   -0.0000   -0.0040
       17 W      7px        0.0015   -0.0000    0.0000   -0.0000   -0.0000   -0.0182   -0.0000    0.0000    0.0000    0.0029
       18 W      8px        0.0000   -0.0000    0.0000    0.0000   -0.0000   -0.0083   -0.0000    0.0000    0.0000    0.0013
       19 W      9px       -0.0006    0.0000   -0.0000    0.0000    0.0000    0.0075    0.0000    0.0000   -0.0000   -0.0012
       20 W     10px        0.0002   -0.0000    0.0000   -0.0000    0.0000    0.0045    0.0000   -0.0000   -0.0000   -0.0007
       21 W     11px        0.0001   -0.0000    0.0000   -0.0000    0.0000    0.0003    0.0000   -0.0000   -0.0000   -0.0000
       22 W      2py        0.0000    0.0000   -0.0000   -0.0000   -0.0000    0.0000   -0.0000    0.0000   -0.0000    0.0000
       23 W      3py       -0.0000   -0.0000   -0.0000   -0.0000    0.0001   -0.0000    0.0000    0.0000    0.0000   -0.0000
       24 W      4py       -0.0000   -0.0063    0.0000   -0.0000   -0.0001    0.0000   -0.0000    0.0000    0.0003   -0.0000
       25 W      5py        0.0000    0.0066   -0.0000    0.0000   -0.8817    0.0000   -0.0000    0.0000   -0.0791    0.0000
       26 W      6py       -0.0000   -0.0013    0.0000    0.0000   -0.0243    0.0000   -0.0000   -0.0000   -0.0040    0.0000
       27 W      7py        0.0000    0.0015   -0.0000    0.0000    0.0182   -0.0000   -0.0000    0.0000    0.0029   -0.0000
       28 W      8py        0.0000    0.0000   -0.0000   -0.0000    0.0083   -0.0000    0.0000   -0.0000    0.0013   -0.0000
       29 W      9py       -0.0000   -0.0006    0.0000   -0.0000   -0.0075    0.0000   -0.0000   -0.0000   -0.0012    0.0000
       30 W     10py        0.0000    0.0002    0.0000    0.0000   -0.0045    0.0000   -0.0000    0.0000   -0.0007    0.0000
       31 W     11py        0.0000    0.0001   -0.0000    0.0000   -0.0003    0.0000   -0.0000    0.0000   -0.0000    0.0000
       32 W      2pz       -0.0000    0.0000    0.0000    0.0000    0.0000   -0.0000    0.0000    0.0000    0.0000   -0.0000
       33 W      3pz        0.0000    0.0000   -0.0001   -0.0000   -0.0000    0.0000   -0.0000    0.0000   -0.0000    0.0000
       34 W      4pz       -0.0000    0.0000    0.0002    0.0009    0.0000    0.0000   -0.0006   -0.0000    0.0000    0.0000
       35 W      5pz        0.0000   -0.0000   -0.0044   -0.0611   -0.0000   -0.0000    0.3381    0.0000    0.0000   -0.0000
       36 W      6pz       -0.0000    0.0000    0.0008    0.0030   -0.0000   -0.0000    0.0077   -0.0000    0.0000   -0.0000
       37 W      7pz        0.0000    0.0000   -0.0009   -0.0009   -0.0000    0.0000   -0.0039   -0.0000   -0.0000    0.0000
       38 W      8pz       -0.0000    0.0000   -0.0002   -0.0018    0.0000    0.0000   -0.0040   -0.0000    0.0000    0.0000
       39 W      9pz       -0.0000   -0.0000    0.0006    0.0009   -0.0000   -0.0000    0.0024   -0.0000   -0.0000   -0.0000
       40 W     10pz        0.0000   -0.0000   -0.0002    0.0007   -0.0000   -0.0000    0.0021   -0.0000   -0.0000   -0.0000
       41 W     11pz        0.0000   -0.0000   -0.0001    0.0000   -0.0000   -0.0000    0.0002   -0.0000   -0.0000    0.0000
       42 W      3d2-       0.0000    0.0001   -0.0000    0.0000   -0.0000    0.0000    0.0000    0.0000    0.0001   -0.0000
       43 W      4d2-       0.0000    0.3724   -0.0000    0.0000    0.0009   -0.0000   -0.0000    0.0000    0.0041   -0.0000
       44 W      5d2-      -0.0000   -0.0019    0.0000    0.0000   -0.0490    0.0000    0.0000   -0.0000   -0.0413    0.0000
       45 W      6d2-       0.0000    0.0019   -0.0000   -0.0000    0.0225   -0.0000   -0.0000    0.0000    0.0215   -0.0000
       46 W      7d2-      -0.0000   -0.0013    0.0000    0.0000   -0.0012    0.0000    0.0000   -0.0000   -0.0048    0.0000
       47 W      8d2-       0.0000    0.0002   -0.0000    0.0000   -0.0057    0.0000    0.0000   -0.0000   -0.0025    0.0000
       48 W      9d2-       0.0000    0.0003    0.0000   -0.0000    0.0012   -0.0000    0.0000    0.0000    0.0008   -0.0000
       49 W     10d2-      -0.0000   -0.0000    0.0000   -0.0000    0.0014   -0.0000    0.0000    0.0000    0.0006   -0.0000
       50 W     11d2-      -0.0000   -0.0001    0.0000   -0.0000    0.0003   -0.0000    0.0000    0.0000    0.0000   -0.0000
       51 W      3d1-       0.0000    0.0002   -0.0000   -0.0000   -0.0000    0.0000    0.0000   -0.0000   -0.0001    0.0000
       52 W      4d1-       0.0000    0.9280   -0.0000   -0.0000    0.0029   -0.0000    0.0000    0.0000   -0.0004    0.0000
       53 W      5d1-      -0.0000   -0.0026    0.0000    0.0000   -0.0801    0.0000   -0.0000   -0.0000   -0.0206    0.0000
       54 W      6d1-       0.0000    0.0027   -0.0000   -0.0000    0.0369   -0.0000    0.0000    0.0000    0.0108   -0.0000
       55 W      7d1-      -0.0000   -0.0020    0.0000    0.0000   -0.0028    0.0000   -0.0000   -0.0000   -0.0023    0.0000
       56 W      8d1-       0.0000    0.0004   -0.0000    0.0000   -0.0079    0.0000   -0.0000   -0.0000   -0.0016    0.0000
       57 W      9d1-       0.0000    0.0003   -0.0000   -0.0000    0.0014   -0.0000   -0.0000    0.0000    0.0007   -0.0000
       58 W     10d1-      -0.0000   -0.0000   -0.0000   -0.0000    0.0017   -0.0000   -0.0000    0.0000    0.0005   -0.0000
       59 W     11d1-      -0.0000   -0.0001   -0.0000    0.0000    0.0003   -0.0000   -0.0000   -0.0000    0.0000   -0.0000
       60 W      3d0       -0.0000    0.0000    0.0002   -0.0000   -0.0000   -0.0000    0.0000   -0.0000   -0.0000   -0.0000
       61 W      4d0       -0.0000    0.0000    1.0000   -0.0038    0.0000    0.0000   -0.0002   -0.0000   -0.0000   -0.0000
       62 W      5d0        0.0000   -0.0000   -0.0029    0.0268    0.0000    0.0000   -0.0003    0.0000    0.0000    0.0000
       63 W      6d0       -0.0000    0.0000    0.0029   -0.0171   -0.0000   -0.0000   -0.0016   -0.0000   -0.0000   -0.0000
       64 W      7d0        0.0000   -0.0000   -0.0022    0.0049   -0.0000   -0.0000    0.0025    0.0000    0.0000    0.0000
       65 W      8d0       -0.0000    0.0000    0.0005    0.0033    0.0000    0.0000   -0.0015   -0.0000   -0.0000    0.0000
       66 W      9d0       -0.0000    0.0000    0.0003   -0.0019   -0.0000   -0.0000    0.0001   -0.0000   -0.0000   -0.0000
       67 W     10d0        0.0000    0.0000   -0.0000   -0.0010   -0.0000   -0.0000    0.0004   -0.0000   -0.0000   -0.0000
       68 W     11d0        0.0000   -0.0000   -0.0002   -0.0001   -0.0000   -0.0000    0.0001   -0.0000   -0.0000    0.0000
       69 W      3d1+       0.0002   -0.0000    0.0000    0.0000    0.0000    0.0000    0.0000    0.0000   -0.0000   -0.0001
       70 W      4d1+       0.9280   -0.0000    0.0000   -0.0000   -0.0000   -0.0029   -0.0000    0.0000   -0.0000   -0.0004
       71 W      5d1+      -0.0026    0.0000   -0.0000    0.0000    0.0000    0.0801    0.0000    0.0000   -0.0000   -0.0206
       72 W      6d1+       0.0027   -0.0000    0.0000   -0.0000   -0.0000   -0.0369   -0.0000   -0.0000    0.0000    0.0108
       73 W      7d1+      -0.0020    0.0000   -0.0000    0.0000    0.0000    0.0028    0.0000    0.0000   -0.0000   -0.0023
       74 W      8d1+       0.0004   -0.0000    0.0000   -0.0000    0.0000    0.0079    0.0000    0.0000   -0.0000   -0.0016
       75 W      9d1+       0.0003   -0.0000    0.0000   -0.0000   -0.0000   -0.0014   -0.0000   -0.0000    0.0000    0.0007
       76 W     10d1+      -0.0000    0.0000   -0.0000    0.0000   -0.0000   -0.0017   -0.0000   -0.0000    0.0000    0.0005
       77 W     11d1+      -0.0001    0.0000   -0.0000    0.0000   -0.0000   -0.0003   -0.0000    0.0000    0.0000    0.0000
       78 W      3d2+      -0.0001    0.0000   -0.0000    0.0000   -0.0000   -0.0000   -0.0000   -0.0000   -0.0000   -0.0001
       79 W      4d2+      -0.3724    0.0000   -0.0000   -0.0000    0.0000    0.0009   -0.0000    0.0000   -0.0000   -0.0041
       80 W      5d2+       0.0019   -0.0000    0.0000    0.0000   -0.0000   -0.0490   -0.0000   -0.0000    0.0000    0.0413
       81 W      6d2+      -0.0019    0.0000   -0.0000   -0.0000    0.0000    0.0225    0.0000    0.0000   -0.0000   -0.0215
       82 W      7d2+       0.0013   -0.0000    0.0000   -0.0000   -0.0000   -0.0012   -0.0000   -0.0000    0.0000    0.0048
       83 W      8d2+      -0.0002    0.0000   -0.0000    0.0000   -0.0000   -0.0057   -0.0000   -0.0000    0.0000    0.0025
       84 W      9d2+      -0.0003    0.0000   -0.0000   -0.0000    0.0000    0.0012    0.0000   -0.0000   -0.0000   -0.0008
       85 W     10d2+       0.0000   -0.0000    0.0000   -0.0000    0.0000    0.0014    0.0000   -0.0000   -0.0000   -0.0006
       86 W     11d2+       0.0001   -0.0000    0.0000   -0.0000    0.0000    0.0003    0.0000   -0.0000   -0.0000   -0.0000
       87 W      4f3-      -0.0000    0.0000   -0.0000   -0.0000    0.0000   -0.0000   -0.0000    0.9999   -0.0000    0.0000
       88 W      5f3-       0.0000    0.0000    0.0000   -0.0000    0.0000   -0.0000    0.0000   -0.0001    0.0000   -0.0000
       89 W      6f3-      -0.0000   -0.0000   -0.0000   -0.0000    0.0000   -0.0000   -0.0000    0.0037   -0.0000    0.0000
       90 W      7f3-       0.0000   -0.0000    0.0000    0.0000   -0.0000    0.0000    0.0000   -0.0001   -0.0000   -0.0000
       91 W      8f3-       0.0000    0.0000    0.0000   -0.0000   -0.0000    0.0000    0.0000   -0.0019    0.0000   -0.0000
       92 W      9f3-      -0.0000   -0.0000    0.0000    0.0000    0.0000   -0.0000    0.0000   -0.0004    0.0000    0.0000
       93 W     10f3-       0.0000   -0.0000   -0.0000   -0.0000    0.0000   -0.0000   -0.0000    0.0004   -0.0000    0.0000
       94 W     11f3-      -0.0000   -0.0000   -0.0000   -0.0000   -0.0000    0.0000   -0.0000    0.0001   -0.0000    0.0000
       95 W      4f2-       0.0000    0.0042   -0.0000   -0.0000    0.4031   -0.0000    0.0000   -0.0000   -0.6084    0.0000
       96 W      5f2-       0.0000    0.0030   -0.0000   -0.0000    0.0155   -0.0000    0.0000    0.0000    0.0033   -0.0000
       97 W      6f2-      -0.0000   -0.0017    0.0000    0.0000    0.0018   -0.0000    0.0000   -0.0000   -0.0032    0.0000
       98 W      7f2-      -0.0000   -0.0001    0.0000    0.0000   -0.0057    0.0000   -0.0000   -0.0000   -0.0009    0.0000
       99 W      8f2-       0.0000    0.0008   -0.0000   -0.0000    0.0001   -0.0000   -0.0000    0.0000    0.0017   -0.0000
      100 W      9f2-      -0.0000   -0.0001    0.0000   -0.0000    0.0015   -0.0000    0.0000    0.0000    0.0005   -0.0000
      101 W     10f2-      -0.0000   -0.0003    0.0000    0.0000    0.0000   -0.0000   -0.0000   -0.0000   -0.0004    0.0000
      102 W     11f2-      -0.0000   -0.0001    0.0000    0.0000   -0.0002    0.0000   -0.0000   -0.0000   -0.0002    0.0000
      103 W      4f1-       0.0000    0.0021   -0.0000   -0.0000    0.2164   -0.0000   -0.0000    0.0000    0.7879   -0.0000
      104 W      5f1-       0.0000    0.0001   -0.0000   -0.0000    0.0102   -0.0000    0.0000    0.0000   -0.0028    0.0000
      105 W      6f1-      -0.0000   -0.0002    0.0000    0.0000    0.0020   -0.0000   -0.0000    0.0000    0.0038   -0.0000
      106 W      7f1-       0.0000    0.0001   -0.0000    0.0000   -0.0031    0.0000   -0.0000   -0.0000    0.0003   -0.0000
      107 W      8f1-      -0.0000   -0.0000   -0.0000   -0.0000   -0.0004    0.0000    0.0000   -0.0000   -0.0017    0.0000
      108 W      9f1-       0.0000    0.0000   -0.0000    0.0000    0.0005   -0.0000    0.0000   -0.0000   -0.0004    0.0000
      109 W     10f1-      -0.0000   -0.0001    0.0000   -0.0000    0.0002   -0.0000   -0.0000    0.0000    0.0003   -0.0000
[...]
         1   13       6.69967255E-03  8.37303846E-07  1.04472945E-12  8.17420177E+06  8.17420177E+06
         1   15       7.47751319E-05  1.08149373E-03  9.22722205E+04  2.72754112E-11  9.22722215E+04
         1   17       7.47767827E-05  9.22742726E+04  1.08140084E-03  1.76225180E-04  9.22742739E+04
         2    4       1.81035375E-01  3.02094278E-02  9.53334765E+07  1.17053753E-12  9.53334765E+07
         2    6       1.81035150E-01  9.53333887E+07  3.02075881E-02  7.68761598E-08  9.53333887E+07
         2    8       2.35331765E-01  1.37776370E+08  5.17223392E+03  4.43448130E-07  1.37781542E+08
         2   10       2.35331608E-01  5.17223824E+03  1.37776280E+08  2.82131468E-11  1.37781452E+08
         2   12       3.80296028E-01  8.36445285E-07  2.86023867E-14  2.54787564E+08  2.54787564E+08
         2   14       6.69967255E-03  8.37303846E-07  1.04472945E-12  8.17420177E+06  8.17420177E+06
         2   16       7.47751319E-05  1.08149373E-03  9.22722205E+04  2.72754112E-11  9.22722215E+04
         2   18       7.47767827E-05  9.22742726E+04  1.08140084E-03  1.76225180E-04  9.22742739E+04
         3    7       2.42628045E-05  1.41191665E-03  3.78301267E+01  9.57793047E-03  3.78411166E+01
         3    9       1.86895634E-04  3.78296766E+01  1.41193872E-03  2.53657941E+02  2.91489029E+02
         3   11       1.67887623E-03  4.58551239E-06  1.44722149E+04  5.42814311E-18  1.44722149E+04
         3   13       1.25423162E-02  5.70812534E-04  1.80067522E+06  4.90681472E-11  1.80067522E+06
         3   15       5.74335262E-02  3.19357727E+06  2.61304918E-02  5.32750140E+06  8.52107870E+06
         3   17       2.15250478E-02  2.61293480E-02  3.19354773E+06  8.46546970E-02  3.19354784E+06
         4    8       2.42628045E-05  1.41191665E-03  3.78301267E+01  9.57793047E-03  3.78411166E+01
         4   10       1.86895634E-04  3.78296766E+01  1.41193872E-03  2.53657941E+02  2.91489029E+02
         4   12       1.67887623E-03  4.58551239E-06  1.44722149E+04  5.42814311E-18  1.44722149E+04
         4   14       1.25423162E-02  5.70812534E-04  1.80067522E+06  4.90681472E-11  1.80067522E+06
         4   16       5.74335262E-02  3.19357727E+06  2.61304918E-02  5.32750140E+06  8.52107870E+06
         4   18       2.15250478E-02  2.61293480E-02  3.19354773E+06  8.46546970E-02  3.19354784E+06
         5    7       1.86897234E-04  3.78305038E+01  1.41192232E-03  2.53657817E+02  2.91489733E+02
         5    9       2.42628156E-05  1.41194803E-03  3.78299313E+01  9.57794429E-03  3.78409212E+01
         5   11       1.67887824E-03  1.44721960E+04  4.58614815E-06  1.59144777E-08  1.44721960E+04
         5   13       1.25419285E-02  1.80061846E+06  5.70337803E-04  2.08973188E-04  1.80061847E+06
         5   15       2.15252325E-02  2.61287286E-02  3.19357169E+06  8.46536223E-02  3.19357180E+06
         5   17       5.74336702E-02  3.19360382E+06  2.61297697E-02  5.32749512E+06  8.52109896E+06
         6    8       1.86897234E-04  3.78305038E+01  1.41192232E-03  2.53657817E+02  2.91489733E+02
         6   10       2.42628156E-05  1.41194803E-03  3.78299313E+01  9.57794429E-03  3.78409212E+01
         6   12       1.67887824E-03  1.44721960E+04  4.58614815E-06  1.59144777E-08  1.44721960E+04
         6   14       1.25419285E-02  1.80061846E+06  5.70337803E-04  2.08973188E-04  1.80061847E+06
         6   16       2.15252325E-02  2.61287286E-02  3.19357169E+06  8.46536223E-02  3.19357180E+06
         6   18       5.74336702E-02  3.19360382E+06  2.61297697E-02  5.32749512E+06  8.52109896E+06
         7   11       2.49553426E-03  7.10330073E+03  2.66664383E-01  5.49603957E-09  7.10356739E+03
         7   13       1.11252724E-02  1.28158486E+06  4.81130408E+01  2.56286096E-04  1.28163297E+06
         7   15       1.59233737E-02  7.39681205E+01  1.90251641E+06  2.61513368E+02  1.90285189E+06
         7   17       7.63308391E-02  1.90253735E+06  7.39672922E+01  7.21897061E+06  9.12158193E+06
         8   12       2.49553426E-03  7.10330073E+03  2.66664383E-01  5.49603957E-09  7.10356739E+03
         8   14       1.11252724E-02  1.28158486E+06  4.81130408E+01  2.56286096E-04  1.28163297E+06
         8   16       1.59233737E-02  7.39681205E+01  1.90251641E+06  2.61513368E+02  1.90285189E+06
         8   18       7.63308391E-02  1.90253735E+06  7.39672922E+01  7.21897061E+06  9.12158193E+06
         9   11       2.49553963E-03  2.66663624E-01  7.10331465E+03  2.00283733E-13  7.10358131E+03
         9   13       1.11255611E-02  4.81116965E+01  1.28161808E+06  8.32642064E-09  1.28166619E+06
         9   15       7.63305782E-02  1.90251480E+06  7.39682674E+01  7.21895689E+06  9.12154566E+06
         9   17       1.59231602E-02  7.39690413E+01  1.90249183E+06  2.61513886E+02  1.90282732E+06
        10   12       2.49553963E-03  2.66663624E-01  7.10331465E+03  2.00283733E-13  7.10358131E+03
        10   14       1.11255611E-02  4.81116965E+01  1.28161808E+06  8.32642064E-09  1.28166619E+06
        10   16       7.63305782E-02  1.90251480E+06  7.39682674E+01  7.21895689E+06  9.12154566E+06
        10   18       1.59231602E-02  7.39690413E+01  1.90249183E+06  2.61513886E+02  1.90282732E+06
        11   13       1.65772784E-01  2.51954386E-04  5.17536567E-11  1.35651225E+07  1.35651225E+07
        11   15       8.39230749E-02  8.40504883E-02  7.17208451E+06  6.41118704E-11  7.17208459E+06
        11   17       8.39231273E-02  7.17209347E+06  8.40505039E-02  5.28289705E-04  7.17209355E+06
        12   14       1.65772784E-01  2.51954386E-04  5.17536567E-11  1.35651225E+07  1.35651225E+07
        12   16       8.39230749E-02  8.40504883E-02  7.17208451E+06  6.41118704E-11  7.17208459E+06
        12   18       8.39231273E-02  7.17209347E+06  8.40505039E-02  5.28289705E-04  7.17209355E+06
        13   15       3.10940437E-05  1.43577891E-08  1.22514653E+00  6.37566910E-17  1.22514654E+00
        13   17       3.10945972E-05  1.22520401E+00  1.43580399E-08  4.61683989E-10  1.22520403E+00
        14   16       3.10940437E-05  1.43577891E-08  1.22514653E+00  6.37566910E-17  1.22514654E+00
        14   18       3.10945972E-05  1.22520401E+00  1.43580399E-08  4.61683989E-10  1.22520403E+00
     -----------------------------------------------------------------------------------------------
--

++ Velocity transition strengths (SO states):
   ------------------------------------------
    for osc. strength at least    1.0000000000000001E-005

      From   To        Osc. strength     Einstein coefficients Ax, Ay, Az (sec-1)    Total A (sec-1)
     -----------------------------------------------------------------------------------------------
         1    3       1.68816515E-01  2.81706020E-02  8.88993176E+07  1.80825895E-12  8.88993176E+07
         1    5       1.68816309E-01  8.88992375E+07  2.81688207E-02  7.97834734E-08  8.88992375E+07
         1    7       2.17087870E-01  1.27095815E+08  4.77127727E+03  4.16117080E-07  1.27100587E+08
         1    9       2.17087713E-01  4.77128138E+03  1.27095725E+08  2.60429712E-11  1.27100497E+08
         1   11       3.56893870E-01  7.35205972E-07  5.53548579E-15  2.39109612E+08  2.39109612E+08
         1   13       6.06338351E-03  1.58647736E-07  5.55178170E-13  7.39789775E+06  7.39789775E+06
         1   15       3.49497671E-05  5.05491496E-04  4.31280259E+04  2.74675880E-11  4.31280264E+04
         1   17       3.49508437E-05  4.31293614E+04  5.05445599E-04  1.58712038E-04  4.31293621E+04
         2    4       1.68816515E-01  2.81706020E-02  8.88993176E+07  1.80825895E-12  8.88993176E+07
         2    6       1.68816309E-01  8.88992375E+07  2.81688207E-02  7.97834734E-08  8.88992375E+07
         2    8       2.17087870E-01  1.27095815E+08  4.77127727E+03  4.16117080E-07  1.27100587E+08
         2   10       2.17087713E-01  4.77128138E+03  1.27095725E+08  2.60429712E-11  1.27100497E+08
         2   12       3.56893870E-01  7.35205972E-07  5.53548579E-15  2.39109612E+08  2.39109612E+08
         2   14       6.06338351E-03  1.58647736E-07  5.55178170E-13  7.39789775E+06  7.39789775E+06
         2   16       3.49497671E-05  5.05491496E-04  4.31280259E+04  2.74675880E-11  4.31280264E+04
         2   18       3.49508437E-05  4.31293614E+04  5.05445599E-04  1.58712038E-04  4.31293621E+04
         3    7       1.45827599E-02  8.48829033E-01  2.27427905E+04  2.20977354E-01  2.27438603E+04
         3    9       1.83349329E-02  2.27427947E+04  8.48829170E-01  5.85226452E+03  2.85959081E+04
         3   11       1.66232231E-05  4.54680563E-08  1.43295669E+02  9.25852307E-15  1.43295669E+02
         3   13       1.36724388E-02  6.22236393E-04  1.96293148E+06  5.38209559E-11  1.96293149E+06
         3   15       6.10263876E-02  3.12532338E+06  2.55719918E-02  5.92883874E+06  9.05416215E+06
         3   17       2.10649226E-02  2.55708723E-02  3.12529245E+06  9.42099833E-02  3.12529257E+06
         4    8       1.45827599E-02  8.48829033E-01  2.27427905E+04  2.20977354E-01  2.27438603E+04
         4   10       1.83349329E-02  2.27427947E+04  8.48829170E-01  5.85226452E+03  2.85959081E+04
         4   12       1.66232231E-05  4.54680563E-08  1.43295669E+02  9.25852307E-15  1.43295669E+02
         4   14       1.36724388E-02  6.22236393E-04  1.96293148E+06  5.38209559E-11  1.96293149E+06
         4   16       6.10263876E-02  3.12532338E+06  2.55719918E-02  5.92883874E+06  9.05416215E+06
         4   18       2.10649226E-02  2.55708723E-02  3.12529245E+06  9.42099833E-02  3.12529257E+06
         5    7       1.83349669E-02  2.27427011E+04  8.48826361E-01  5.85223540E+03  2.85957853E+04
         5    9       1.45827990E-02  8.48825875E-01  2.27427236E+04  2.20976221E-01  2.27437934E+04
         5   11       1.66232446E-05  1.43295496E+02  4.53807730E-08  6.56052114E-10  1.43295496E+02
         5   13       1.36720372E-02  1.96287262E+06  6.21740326E-04  2.31473160E-04  1.96287262E+06
         5   15       2.10651156E-02  2.55702814E-02  3.12531772E+06  9.42089822E-02  3.12531784E+06
         5   17       6.10265312E-02  3.12535032E+06  2.55712542E-02  5.92883194E+06  9.05418229E+06
         6    8       1.83349669E-02  2.27427011E+04  8.48826361E-01  5.85223540E+03  2.85957853E+04
         6   10       1.45827990E-02  8.48825875E-01  2.27427236E+04  2.20976221E-01  2.27437934E+04
         6   12       1.66232446E-05  1.43295496E+02  4.53807730E-08  6.56052114E-10  1.43295496E+02
         6   14       1.36720372E-02  1.96287262E+06  6.21740326E-04  2.31473160E-04  1.96287262E+06
         6   16       2.10651156E-02  2.55702814E-02  3.12531772E+06  9.42089822E-02  3.12531784E+06
         6   18       6.10265312E-02  3.12535032E+06  2.55712542E-02  5.92883194E+06  9.05418229E+06
         7   11       2.66390126E-04  7.58256773E+02  2.84656038E-02  4.47342044E-09  7.58285239E+02
         7   13       1.25156493E-02  1.44175547E+06  5.41261633E+01  2.65619623E-04  1.44180960E+06
         7   15       1.82822429E-02  8.49272235E+01  2.18439258E+06  2.68141042E+02  2.18474565E+06
         7   17       8.02204469E-02  2.18441599E+06  8.49262870E+01  7.40192485E+06  9.58642577E+06
         8   12       2.66390126E-04  7.58256773E+02  2.84656038E-02  4.47342044E-09  7.58285239E+02
         8   14       1.25156493E-02  1.44175547E+06  5.41261633E+01  2.65619623E-04  1.44180960E+06
         8   16       1.82822429E-02  8.49272235E+01  2.18439258E+06  2.68141042E+02  2.18474565E+06
         8   18       8.02204469E-02  2.18441599E+06  8.49262870E+01  7.40192485E+06  9.58642577E+06
         9   11       2.66390551E-04  2.84655634E-02  7.58257836E+02  1.38575515E-13  7.58286302E+02
         9   13       1.25159795E-02  5.41246256E+01  1.44179347E+06  8.60101839E-09  1.44184760E+06
         9   15       8.02201662E-02  2.18439084E+06  8.49273836E+01  7.40191111E+06  9.58638687E+06
         9   17       1.82820043E-02  8.49282455E+01  2.18436515E+06  2.68141585E+02  2.18471822E+06
        10   12       2.66390551E-04  2.84655634E-02  7.58257836E+02  1.38575515E-13  7.58286302E+02
        10   14       1.25159795E-02  5.41246256E+01  1.44179347E+06  8.60101839E-09  1.44184760E+06
        10   16       8.02201662E-02  2.18439084E+06  8.49273836E+01  7.40191111E+06  9.58638687E+06
        10   18       1.82820043E-02  8.49282455E+01  2.18436515E+06  2.68141585E+02  2.18471822E+06
        11   13       1.81644393E-01  2.77167568E-04  5.87481830E-11  1.48639418E+07  1.48639418E+07
        11   15       9.13508438E-02  9.14898408E-02  7.80689042E+06  6.90661245E-11  7.80689051E+06
        11   17       9.13508897E-02  7.80689922E+06  9.14898312E-02  5.75017220E-04  7.80689931E+06
        12   14       1.81644393E-01  2.77167568E-04  5.87481830E-11  1.48639418E+07  1.48639418E+07
        12   16       9.13508438E-02  9.14898408E-02  7.80689042E+06  6.90661245E-11  7.80689051E+06
        12   18       9.13508897E-02  7.80689922E+06  9.14898312E-02  5.75017220E-04  7.80689931E+06
        13   15       2.73656719E-03  1.26365176E-06  1.07824749E+02  4.29596294E-16  1.07824750E+02
        13   17       2.73653733E-03  1.07826712E+02  1.26364150E-06  8.98675963E-10  1.07826713E+02
        14   16       2.73656719E-03  1.26365176E-06  1.07824749E+02  4.29596294E-16  1.07824750E+02
        14   18       2.73653733E-03  1.07826712E+02  1.26364150E-06  8.98675963E-10  1.07826713E+02
     -----------------------------------------------------------------------------------------------
--

++ Length and velocity gauge comparison (SO states):

 --------------------------------------------------
 A comparison between the dipole oscillator strengths in 
 length and velocity gauge will be performed

 All dipole oscillator differences above the tolerance of   0.10000000000000001       will be printed 

 Due to basis set deficiency these oscillator may be problematic 

 The tolerance is defined as ABS(1-O_l/O_v) 
 O_l : dipole oscillator strength in length gauge
 O_p : dipole oscillator strength in velocity gauge
 --------------------------------------------------

  Problematic transitions have been found

      From   To       Difference (%) Osc. st. (len.) Osc. st. (vel.)
     ---------------------------------------------------------------
         1   13            10.493960  6.69967255E-03  6.06338351E-03
         1   15           113.950301  7.47751319E-05  3.49497671E-05
         1   17           113.948434  7.47767827E-05  3.49508437E-05
         2   14            10.493960  6.69967255E-03  6.06338351E-03
         2   16           113.950301  7.47751319E-05  3.49497671E-05
         2   18           113.948434  7.47767827E-05  3.49508437E-05
         3    7            99.833620  2.42628045E-05  1.45827599E-02
         3    9            98.980658  1.86895634E-04  1.83349329E-02
         3   11          9999.583122  1.67887623E-03  1.66232231E-05
         4    8            99.833620  2.42628045E-05  1.45827599E-02
         4   10            98.980658  1.86895634E-04  1.83349329E-02
         4   12          9999.583122  1.67887623E-03  1.66232231E-05
         5    7            98.980651  1.86897234E-04  1.83349669E-02
         5    9            99.833620  2.42628156E-05  1.45827990E-02
         5   11          9999.582096  1.67887824E-03  1.66232446E-05
         6    8            98.980651  1.86897234E-04  1.83349669E-02
         6   10            99.833620  2.42628156E-05  1.45827990E-02
         6   12          9999.582096  1.67887824E-03  1.66232446E-05
         7   11           836.796831  2.49553426E-03  2.66390126E-04
         7   13            11.109107  1.11252724E-02  1.25156493E-02
         7   15            12.902515  1.59233737E-02  1.82822429E-02
         8   12           836.796831  2.49553426E-03  2.66390126E-04
         8   14            11.109107  1.11252724E-02  1.25156493E-02
         8   16            12.902515  1.59233737E-02  1.82822429E-02
         9   11           836.797354  2.49553963E-03  2.66390551E-04
         9   13            11.109145  1.11255611E-02  1.25159795E-02
         9   17            12.902546  1.59231602E-02  1.82820043E-02
        10   12           836.797354  2.49553963E-03  2.66390551E-04
        10   14            11.109145  1.11255611E-02  1.25159795E-02
        10   18            12.902546  1.59231602E-02  1.82820043E-02
        13   15            98.863757  3.10940437E-05  2.73656719E-03
        13   17            98.863725  3.10945972E-05  2.73653733E-03
        14   16            98.863757  3.10940437E-05  2.73656719E-03
        14   18            98.863725  3.10945972E-05  2.73653733E-03
     ---------------------------------------------------------------

 Number of problematic transitions =                    34

--

 Electric-dipole - electric-octupole not included
++ I/O STATISTICS
 
  I. General I/O information
  - - - - - - - - - - - - - - - - - - - - - - - - - - - - - - - - - - - - - - - - - - -
  Unit  Name          Flsize      Write/Read            MBytes           Write/Read
                      (MBytes)       Calls              In/Out           Time, sec.
  - - - - - - - - - - - - - - - - - - - - - - - - - - - - - - - - - - - - - - - - - - -
   1  SCRATCH           0.00 .       9/      45 .      0.0/      0.0 .       0/       0
   2  ANNI              0.00 .       0/       0 .      0.0/      0.0 .       0/       0
   3  RUNFILE          15.28 .     322/   10517 .      2.3/     76.3 .       0/       0
   4  ONEINT            6.58 .       0/   28767 .      0.0/   3777.9 .       0/       0
   5  JOBIPH            7.71 .       0/      92 .      0.0/      0.9 .       0/       0
   6  ORDINT          771.03 .       1/    6169 .      0.0/   1542.0 .       0/       0
  - - - - - - - - - - - - - - - - - - - - - - - - - - - - - - - - - - - - - - - - - - -
   *  TOTAL           800.61 .     332/   45590 .      2.3/   5397.1 .       0/       0
  - - - - - - - - - - - - - - - - - - - - - - - - - - - - - - - - - - - - - - - - - - -
 
  II. I/O Access Patterns
  - - - - - - - - - - - - - - - - - - - -
  Unit  Name               % of random
                         Write/Read calls
  - - - - - - - - - - - - - - - - - - - -
   1  SCRATCH             88.9/ 100.0
   2  ANNI                 0.0/   0.0
   3  RUNFILE             28.6/  10.8
   4  ONEINT               0.0/  13.4
   5  JOBIPH               0.0/  76.1
   6  ORDINT             100.0/   0.0
  - - - - - - - - - - - - - - - - - - - -
--
--- Stop Module: rassi at Fri Jan 10 02:34:14 2025 /rc=_RC_ALL_IS_WELL_ ---
*** files: xmldump
    saved to directory /home4/s4752295/Internship/Initial_simulations/Point_charge_model/1_electron/active_space_9_non_rel/W/varying_bond_length
--- Module rassi spent 4 seconds ---

.##################.
.# Happy landing! #.
.##################.

    Timing: Wall=94.77 User=73.09 System=15.32

###############################################################################
Hbrk Cluster
Job 14556698 for user s4752295
Finished at: Fri Jan 10 02:34:14 CET 2025

Job details:
============

Job ID                         : 14556698
Name                           : W_no_c_light
User                           : s4752295
Partition                      : regularmedium
Nodes                          : node101
Number of Nodes                : 1
Cores                          : 1
Number of Tasks                : 1
State                          : RUNNING  
Submit                         : 2025-01-10T02:32:34
Start                          : 2025-01-10T02:32:35
End                            : --
Reserved walltime              : 15:00:00
Used walltime                  : 00:01:39
Used CPU time                  : -- 
% User (Computation)           : --
% System (I/O)                 : --
Total memory reserved          : 25000M
Maximum memory used            : --

Acknowledgements:
=================

Please see this page for information about acknowledging Hbrk in your publications:

https://wiki.hpc.rug.nl/habrok/introduction/scientific_output

################################################################################
