   This run of MOLCAS is using the pymolcas driver

                             OPE
                             OPE          NMOL  CASOP  ENMOLC A   SO
                 OPE        NMOLC        AS  OP EN  MO LC     AS  OP
                OPENM       OL CA        SO  PE NM  OL CA     SOP EN
                OP EN      MO   LC       AS  OP ENMOL  CASO   PENMOL
                OP  EN     MO   LC       AS  OP EN     MO     LC ASO
               OP   E  NMOL  C  AS       OP  EN MO     LC     AS  OP
               OP  E   NMO   LC AS        OPEN  MO     LCASOP EN   M
               O  PEN   MO  LCA  SO
            OPE   NMO   L   CAS    OP
        OPENMOL  CASOP     ENMOL   CASOPE
     OPENMOLCA   SOPENMOLCASOPEN   MOLCASOPE
    OPENMOLCAS   OP           EN   MOL    CAS
    OPENMOLCAS       OP  ENM        O     LCA
    OPENMOLCAS    OPEN  MOLCASO     P  E  NMO
    OPENMOLCAS     OP               E  N  MOL
    OPENMOLCA   SO           PENM   O  L  CAS    OPEN    MO    LCAS
    OPENMOLCA   SOP           ENM   O  L  CAS   OP  EN  MOLC  AS   O
    OPENMOLCA   SOPE           NM      O  LCA   S      OP  EN MO
    OPENMOLC                AS         O  PEN   M      OL  CA  SOPE
    OPENMO        LCASOPE  NMOL        C  ASO   P      ENMOLC     AS
    OPE     NMO      LCA  SO     P     E   NM   OL  CA SO  PE N   MO
          OPENMOLCA            SOPE   NMO        LCAS  O    P  ENMO
     OPENMOLCASOPENMOLCASOPENMOLCASOPENMOLCA
        OPENMOLCASOPENMOLCASOPENMOLCASOPE
            OPENMOLCASOPENMOLCASOPENM
               OPENMOLCASOPENMOLCA        version: o91e1abe7de707b ?
                   OPENMOLCASO
                       OPE                tag:

 OpenMolcas is free software; you can redistribute it and/or modify it
 under the terms of the GNU Lesser General Public License version 2.1.
 OpenMolcas is distributed in the hope that it will be useful, but it
 is provided "as is" and without any express or implied warranties.
 For more details see the full text of the license in the file
 LICENSE or in <http://www.gnu.org/licenses/>.

                 Copyright (C) The OpenMolcas Authors
           For the author list and the recommended citation,
                   consult the file CONTRIBUTORS.md

           *************************************************
           * pymolcas version py2.10                       *
           *   build 3068ae8b88c9345ec6cfef6fef7f1169      *
           *   (after the EMIL interpreter by V. Veryazov) *
           *************************************************

configuration info
------------------
Host name: login1 (Linux)
C Compiler ID: GNU
C flags: -std=gnu99
Fortran Compiler ID: GNU
Fortran flags: -fno-aggressive-loop-optimizations -cpp -fdefault-integer-8 -fmax-stack-var-size=1048576
Definitions: _MOLCAS_;_I8_;_LINUX_;_MKL_
Parallel: OFF (GA=OFF)


   ---------------------------------------------------------------------------------------------------------------------------------------------
  |
  |           Project: vanadium_so_cf
  |    Submitted from: /home4/s4752295/Internship/Initial_simulations/Point_charge_model/1_electron/active_space_9_non_rel/V/varying_bond_length
  |      Scratch area: /tmp/vanadium_so_cf
  |   Save outputs to: /home4/s4752295/Internship/Initial_simulations/Point_charge_model/1_electron/active_space_9_non_rel/V/varying_bond_length
  |            Molcas: /home4/s4752295/Internship/Molcas/recomp_try/OpenMolcas-master/build
  |
  | Scratch area is empty
  |
  |    MOLCAS_DRIVER = /home4/s4752295/Internship/Molcas/bin/pymolcas
  |    MOLCAS_NPROCS = 1
  |    MOLCAS_SOURCE = /home4/s4752295/Internship/Molcas/recomp_try/OpenMolcas-master
  | MOLCAS_STRUCTURE = 0
  |
   ---------------------------------------------------------------------------------------------------------------------------------------------

++ ---------   Input file   ---------

&SEWARD
AMFi

CLIG
$R

Basis Set
V.ANO-rcc.Roos.21s15p10d6f4g2h.10s9p8d6f4g2h.
Spherical d
V            0.0        0.0     0.0
End of Basis

Xfield

4
0.000000,  0.000,  1.512        -1.0
1.309430,  0.000, -0.756        -1.0
-0.654715,  1.134, -0.756       -1.0
-0.654715, -1.134, -0.756       -1.0

End of input

&SCF
Occupied
9
Iterations
   50  100
End of Input

&RASSCF
LumOrb
Symmetry
1
Spin
2
Nactel
1 0 0
CIRoot
9 9 1
inactive
9
ras2
9
End of Input

>>> COPY vanadium_so_cf.JobIph $SLURM_SUBMIT_DIR/vanadium_so_cf.doublet.JobIph

>>> COPY $SLURM_SUBMIT_DIR/vanadium_so_cf.doublet.JobIph ./JOB002

&RASSI
NROFJobIph
1 All
SpinOrbit
End of Input

EOF

-- ----------------------------------

--- Start Module: seward at Fri Jan 10 02:25:37 2025 ---

()()()()()()()()()()()()()()()()()()()()()()()()()()()()()()()()()()()()()()()()()()()()()()()()()()

                                              &SEWARD

                                   only a single process is used
                       available to each process: 4.1 GB of memory, 1 thread?
                                            pid: 1095492
()()()()()()()()()()()()()()()()()()()()()()()()()()()()()()()()()()()()()()()()()()()()()()()()()()

 The speed of LIGHT in this CALCULATION =   137.03599917700001     
               SEWARD will generate:
                  Multipole Moment integrals up to order  2
                  Kinetic Energy integrals
                  Nuclear Attraction integrals (point charge)
                  One-Electron Hamiltonian integrals
                  Velocity integrals
                  Relativistic Douglas-Kroll-Hess integrals:
                    - Parametrization         : EXP
                    - DKH order of Hamiltonian: 2
                    - DKH order of Properties : 0
                         - multipole moment operators
                         - electric potential operators
                         - contact operators
                  External field from     4 point(s) added to the one-electron Hamiltonian
                  Orbital angular momentum around ( 0.0000  0.0000  0.0000 )
                  Velocity quadrupole around ( 0.0000  0.0000  0.0000 )
                  Atomic mean-field integrals
                  Two-Electron Repulsion integrals

                   Integrals are discarded if absolute value <: 0.10E-13
                   Integral cutoff threshold is set to       <: 0.10E-15

++    Symmetry information:
      ---------------------

                    Character Table for C1 

                             E  
                    a        1  x, y, xy, Rz, z, xz, Ry, yz, Rx, I
--


++    Basis set information:
      ----------------------


      Basis set label: V.ANO-RCC.ROOS.21S15P10D6F4G2H.10S9P8D6F4G2H......

      Electronic valence basis set:
      ------------------
      Associated Effective Charge  23.000000 au
      Associated Actual Charge     23.000000 au
      Nuclear Model: Point charge

      Shell  nPrim  nBasis  Cartesian Spherical Contaminant
         s      21      10        X                  
         p      15       9        X                  
         d      10       8                 X         
         f       6       6                 X         
         g       4       4                 X         
         h       2       2                 X         
--


++    Molecular structure info:
      -------------------------

                    ************************************************ 
                    **** Cartesian Coordinates / Bohr, Angstrom **** 
                    ************************************************ 

     Center  Label                x              y              z                     x              y              z
        1      V                0.000000       0.000000       0.000000              0.000000       0.000000       0.000000
--


++    Operator info:
      --------------


  Net charge from external field:   -4.0000000000000000     
--


            Nuclear Potential Energy              0.00000000 au

                    Nuclear-External Field Potential Energy     -60.84656621 au
                    External Field Potential Energy               2.46828782 au 


            Total Nuclear Potential Energy            -60.84656621 au


      Basis set specifications :
      Symmetry species         a  
      Basis functions          177

 Sorry, Molden does not know how to handle
 functions with angular momentum larger than g
Note: The following floating-point exceptions are signalling: IEEE_UNDERFLOW_FLAG IEEE_DENORMAL
--- Stop Module: seward at Fri Jan 10 02:25:45 2025 /rc=_RC_ALL_IS_WELL_ ---
*** files: vanadium_so_cf.GssOrb xmldump
    saved to directory /home4/s4752295/Internship/Initial_simulations/Point_charge_model/1_electron/active_space_9_non_rel/V/varying_bond_length
--- Module seward spent 8 seconds ---

*** symbolic link created: INPORB -> vanadium_so_cf.GssOrb
--- Start Module: scf at Fri Jan 10 02:25:45 2025 ---

()()()()()()()()()()()()()()()()()()()()()()()()()()()()()()()()()()()()()()()()()()()()()()()()()()

                                                &SCF

                                   only a single process is used
                       available to each process: 4.1 GB of memory, 1 thread?
                                            pid: 1095502
()()()()()()()()()()()()()()()()()()()()()()()()()()()()()()()()()()()()()()()()()()()()()()()()()()

++    Input section:
      --------------

      Header of the integral files:
      
       Integrals generated by seward 4.2.0  , Fri Jan 10 02:25:37 2025


      Cartesian coordinates in Angstrom:
      -----------------------------------------------------
      No.  Label        X            Y            Z        
      -----------------------------------------------------
       1   V          0.00000000   0.00000000   0.00000000
      -----------------------------------------------------
      Nuclear repulsion energy =  -60.84656621
--

++    Orbital specifications:
      -----------------------

      Symmetry species               1
                                     a
      Frozen orbitals                0
      Occupied orbitals              9
      Secondary orbitals           168
      Deleted orbitals               0
      Total number of orbitals     177
      Number of basis functions    177
--

      Molecular charge                           5.000

++    Optimization specifications:
      ----------------------------

      SCF Algorithm: Conventional
      Minimized density differences are used
      Number of density matrices in core                5
      Maximum number of NDDO SCF iterations            50
      Maximum number of HF SCF iterations             100
      Threshold for SCF energy change            0.10E-08
      Threshold for density matrix               0.10E-03
      Threshold for Fock matrix                  0.15E-03
      Threshold for linear dependence            0.10E-08
      Threshold at which DIIS is turned on       0.15E+00
      Threshold at which QNR/C2DIIS is turned on 0.75E-01
      Threshold for Norm(delta) (QNR/C2DIIS)     0.20E-04
      DIIS extrapolation of the SCF procedure
      All orbitals punched on: SCFORB
--

      Detected guessorb starting orbitals                                             


++ Convergence information
                                   SCF        iterations: Energy and convergence statistics

Iter     Tot. SCF        One-elec.       Two-elec.     Energy      Max Dij or  Max Fij      DNorm      TNorm      AccCon     Time
         Energy          Energy          Energy        Change      Delta Norm                                                in Sec.
   1  -955.607056199 -1184.240257599   289.479767612   0.00E+00    0.10E+00*   0.24E+00*    0.60E+01   0.22E+03   None         1.
   2  -955.943742232 -1191.314253594   296.217077573  -0.34E+00*   0.40E-01*   0.39E-01*    0.78E+00   0.22E+03   EDIIS        1.
   3  -955.955911775 -1190.198330639   295.088985077  -0.12E-01*   0.96E-02*   0.11E-01*    0.16E+00   0.22E+03   EDIIS        1.
   4  -955.957046900 -1190.382473589   295.271992902  -0.11E-02*   0.49E-02*   0.53E-02*    0.24E-01   0.22E+03   c2DIIS       1.
   5  -955.957191659 -1190.344100500   295.233475052  -0.14E-03*   0.18E-02*   0.17E-02*    0.32E-02   0.22E+03   QNRc2DIIS    1.
   6  -955.957213291 -1190.347934817   295.237287738  -0.22E-04*   0.11E-02*   0.74E-03*    0.39E-03   0.22E+03   QNRc2DIIS    1.
   7  -955.957216928 -1190.345358658   295.234707942  -0.36E-05*   0.33E-04*   0.62E-04     0.65E-04   0.22E+03   QNRc2DIIS    1.
   8  -955.957216937 -1190.345984111   295.235333385  -0.94E-08*   0.18E-05    0.20E-05     0.15E-04   0.22E+03   QNRc2DIIS    1.
   9  -955.957216937 -1190.346028539   295.235377813  -0.21E-10    0.39E-06    0.73E-06     0.19E-03   0.22E+03   QNRc2DIIS    1.

       Convergence after  9 Macro Iterations
--

 *****************************************************************************************************************************
 *                                                                                                                           *
 *                                             SCF/KS-DFT Program, Final results                                             *
 *                                                                                                                           *
 *                                                                                                                           *
 *                                                                                                                           *
 *                                                       Final Results                                                       *
 *                                                                                                                           *
 *****************************************************************************************************************************

::    Total SCF energy                               -955.9572169372
      One-electron energy                           -1190.3460285389
      Two-electron energy                             295.2353778134
      Nuclear repulsion energy                        -60.8465662117
      Kinetic energy (interpolated)                   972.2358969404
      Virial theorem                                    0.9832564504
      Total spin, S(S+1)                                0.0000000000
      Total spin, S                                     0.0000000000
      Max non-diagonal density matrix element           0.0000002546
      Max non-diagonal Fock matrix element              0.0000000808


      All orbitals with orbital energies smaller than  E(LUMO)+0.5 are printed

++    Molecular orbitals:
      -------------------

      Title: SCF orbitals

      Molecular orbitals for symmetry species 1: a  

          Orbital            1         2         3         4         5         6         7         8         9        10    
          Energy         -203.3640  -24.7152  -20.6175  -20.6175  -20.6126   -3.4384   -2.2257   -2.2257   -2.1211   -0.1818
          Occ. No.          2.0000    2.0000    2.0000    2.0000    2.0000    2.0000    2.0000    2.0000    2.0000    0.0000

        1 V      1s         1.0000   -0.0001   -0.0000   -0.0000   -0.0000   -0.0000   -0.0000    0.0000    0.0000    0.0000
        2 V      2s         0.0001    1.0000   -0.0000    0.0000   -0.0022   -0.0018    0.0000    0.0000   -0.0005    0.0001
        3 V      3s        -0.0000   -0.0018    0.0000   -0.0000    0.0005   -0.9957    0.0000    0.0000   -0.0567   -0.0191
        4 V      4s         0.0000    0.0001   -0.0000    0.0000   -0.0001    0.0265    0.0000    0.0000    0.0083   -0.9549
        5 V      5s        -0.0000   -0.0002    0.0000   -0.0000    0.0001   -0.0222   -0.0000   -0.0000   -0.0078   -0.1504
        6 V      6s         0.0000    0.0005   -0.0000    0.0000   -0.0001    0.0411    0.0000   -0.0000    0.0134    0.0343
        7 V      7s        -0.0000   -0.0002    0.0000   -0.0000    0.0001   -0.0096    0.0000   -0.0000   -0.0023    0.0567
        8 V      8s         0.0000    0.0000   -0.0000   -0.0000   -0.0000   -0.0035   -0.0000   -0.0000   -0.0017    0.0197
        9 V      9s        -0.0000    0.0001   -0.0000    0.0000    0.0000    0.0016   -0.0000   -0.0000    0.0004    0.0146
       10 V     10s         0.0000   -0.0002   -0.0000   -0.0000   -0.0000    0.0002    0.0000   -0.0000    0.0002    0.0042
       11 V      2px       -0.0000   -0.0000   -0.0001    1.0000   -0.0000   -0.0000    0.0023    0.0000   -0.0000    0.0000
       12 V      3px        0.0000   -0.0000    0.0000   -0.0024    0.0000    0.0000    0.9922    0.0000   -0.0000   -0.0000
       13 V      4px       -0.0000    0.0000   -0.0000    0.0003   -0.0000   -0.0000   -0.0326   -0.0000    0.0000   -0.0000
       14 V      5px        0.0000   -0.0000    0.0000   -0.0007    0.0000    0.0000    0.0521    0.0000   -0.0000   -0.0000
       15 V      6px       -0.0000    0.0000   -0.0000    0.0003   -0.0000    0.0000   -0.0120   -0.0000    0.0000   -0.0000
       16 V      7px        0.0000   -0.0000    0.0000   -0.0000    0.0000   -0.0000   -0.0008   -0.0000   -0.0000   -0.0000
       17 V      8px       -0.0000    0.0000    0.0000   -0.0001    0.0000    0.0000    0.0026    0.0000   -0.0000    0.0000
       18 V      9px        0.0000    0.0000   -0.0000    0.0002   -0.0000    0.0000   -0.0014   -0.0000    0.0000    0.0000
       19 V     10px       -0.0000    0.0000    0.0000   -0.0003    0.0000   -0.0000   -0.0009   -0.0000    0.0000    0.0000
       20 V      2py       -0.0000    0.0000    1.0000    0.0001   -0.0000    0.0000   -0.0000    0.0023    0.0000    0.0000
       21 V      3py       -0.0000   -0.0000   -0.0024   -0.0000    0.0000    0.0000   -0.0000    0.9922    0.0000    0.0000
       22 V      4py        0.0000    0.0000    0.0003    0.0000   -0.0000   -0.0000    0.0000   -0.0326   -0.0000    0.0000
       23 V      5py       -0.0000   -0.0000   -0.0007   -0.0000    0.0000    0.0000   -0.0000    0.0521    0.0000    0.0000
       24 V      6py        0.0000    0.0000    0.0003    0.0000   -0.0000   -0.0000    0.0000   -0.0120    0.0000    0.0000
       25 V      7py       -0.0000   -0.0000   -0.0000   -0.0000   -0.0000   -0.0000    0.0000   -0.0008    0.0000    0.0000
       26 V      8py        0.0000    0.0000   -0.0001   -0.0000    0.0000    0.0000   -0.0000    0.0026    0.0000    0.0000
       27 V      9py       -0.0000   -0.0000    0.0002    0.0000   -0.0000    0.0000    0.0000   -0.0014   -0.0000    0.0000
       28 V     10py        0.0000    0.0000   -0.0003   -0.0000    0.0000   -0.0000    0.0000   -0.0009   -0.0000    0.0000
       29 V      2pz        0.0000    0.0022   -0.0000    0.0000    1.0000    0.0003    0.0000    0.0000    0.0029    0.0001
       30 V      3pz       -0.0000    0.0003    0.0000   -0.0000   -0.0028   -0.0566    0.0000    0.0000    0.9927    0.0020
       31 V      4pz        0.0000   -0.0001   -0.0000    0.0000    0.0004    0.0010   -0.0000   -0.0000   -0.0371   -0.2190
       32 V      5pz       -0.0000    0.0001    0.0000   -0.0000   -0.0010    0.0011    0.0000    0.0000    0.0649   -0.0321
       33 V      6pz        0.0000   -0.0001   -0.0000    0.0000    0.0004   -0.0019   -0.0000    0.0000   -0.0178   -0.0261
       34 V      7pz       -0.0000    0.0001    0.0000   -0.0000   -0.0001    0.0013   -0.0000    0.0000    0.0004   -0.0031
       35 V      8pz        0.0000   -0.0000    0.0000   -0.0000   -0.0001    0.0004    0.0000    0.0000    0.0043    0.0025
       36 V      9pz       -0.0000    0.0000   -0.0000    0.0000    0.0002   -0.0006   -0.0000   -0.0000   -0.0026    0.0018
       37 V     10pz        0.0000   -0.0000    0.0000   -0.0000   -0.0002   -0.0002   -0.0000   -0.0000   -0.0018    0.0003
       38 V      3d2-      -0.0000   -0.0000    0.0002    0.0000   -0.0000    0.0000   -0.0000    0.0542    0.0000    0.0000
       39 V      4d2-      -0.0000    0.0000   -0.0001   -0.0000    0.0000   -0.0000    0.0000   -0.0144   -0.0000    0.0000
       40 V      5d2-       0.0000   -0.0000    0.0000    0.0000   -0.0000    0.0000    0.0000   -0.0043   -0.0000    0.0000
       41 V      6d2-      -0.0000    0.0000    0.0001    0.0000   -0.0000   -0.0000   -0.0000    0.0075    0.0000    0.0000
       42 V      7d2-       0.0000   -0.0000   -0.0001   -0.0000    0.0000    0.0000   -0.0000    0.0017    0.0000    0.0000
       43 V      8d2-      -0.0000   -0.0000    0.0001    0.0000   -0.0000   -0.0000    0.0000   -0.0016   -0.0000    0.0000
       44 V      9d2-       0.0000    0.0000   -0.0000   -0.0000    0.0000    0.0000    0.0000   -0.0015   -0.0000    0.0000
       45 V     10d2-      -0.0000   -0.0000    0.0000    0.0000   -0.0000   -0.0000    0.0000   -0.0001   -0.0000    0.0000
       46 V      3d1-      -0.0000   -0.0000    0.0004    0.0000   -0.0000    0.0000   -0.0000    0.0826    0.0000    0.0000
       47 V      4d1-       0.0000    0.0000   -0.0003   -0.0000    0.0000   -0.0000    0.0000   -0.0220   -0.0000    0.0000
       48 V      5d1-      -0.0000   -0.0000    0.0002    0.0000   -0.0000   -0.0000    0.0000   -0.0058   -0.0000    0.0000
       49 V      6d1-       0.0000    0.0000   -0.0000   -0.0000    0.0000    0.0000   -0.0000    0.0107    0.0000    0.0000
       50 V      7d1-      -0.0000   -0.0000   -0.0000   -0.0000    0.0000   -0.0000   -0.0000    0.0023    0.0000    0.0000
       51 V      8d1-       0.0000    0.0000    0.0000    0.0000   -0.0000    0.0000    0.0000   -0.0020   -0.0000   -0.0000
       52 V      9d1-      -0.0000    0.0000    0.0000    0.0000   -0.0000   -0.0000    0.0000   -0.0019   -0.0000   -0.0000
       53 V     10d1-       0.0000    0.0000   -0.0000   -0.0000    0.0000    0.0000    0.0000   -0.0002    0.0000   -0.0000
       54 V      3d0       -0.0000   -0.0002    0.0000   -0.0000   -0.0001    0.0235   -0.0000   -0.0000   -0.0553    0.0680
       55 V      4d0        0.0000    0.0002    0.0000   -0.0000    0.0000   -0.0071    0.0000    0.0000    0.0143    0.0432
       56 V      5d0       -0.0000   -0.0001   -0.0000    0.0000    0.0001   -0.0019    0.0000    0.0000    0.0053    0.0109
       57 V      6d0        0.0000    0.0001    0.0000   -0.0000   -0.0003    0.0047   -0.0000    0.0000   -0.0083   -0.0011
       58 V      7d0       -0.0000   -0.0000   -0.0000    0.0000    0.0002    0.0003   -0.0000   -0.0000   -0.0023    0.0001
       59 V      8d0        0.0000    0.0000    0.0000   -0.0000   -0.0001   -0.0011    0.0000   -0.0000    0.0020    0.0002
       60 V      9d0       -0.0000   -0.0000   -0.0000    0.0000    0.0001   -0.0006    0.0000   -0.0000    0.0020   -0.0000
       61 V     10d0        0.0000   -0.0000   -0.0000   -0.0000   -0.0000   -0.0000    0.0000    0.0000    0.0002   -0.0001
       62 V      3d1+      -0.0000    0.0000   -0.0000    0.0004   -0.0000   -0.0000    0.0826    0.0000   -0.0000   -0.0000
       63 V      4d1+      -0.0000   -0.0000    0.0000   -0.0003    0.0000    0.0000   -0.0220   -0.0000    0.0000   -0.0000
       64 V      5d1+       0.0000    0.0000   -0.0000    0.0002   -0.0000   -0.0000   -0.0058   -0.0000    0.0000   -0.0000
       65 V      6d1+      -0.0000   -0.0000    0.0000   -0.0000    0.0000   -0.0000    0.0107    0.0000   -0.0000   -0.0000
       66 V      7d1+       0.0000    0.0000    0.0000   -0.0000    0.0000    0.0000    0.0023    0.0000   -0.0000   -0.0000
       67 V      8d1+      -0.0000    0.0000   -0.0000    0.0000   -0.0000    0.0000   -0.0020   -0.0000    0.0000    0.0000
       68 V      9d1+       0.0000   -0.0000   -0.0000    0.0000   -0.0000   -0.0000   -0.0019   -0.0000    0.0000    0.0000
       69 V     10d1+      -0.0000    0.0000    0.0000   -0.0000    0.0000   -0.0000   -0.0002   -0.0000   -0.0000    0.0000
       70 V      3d2+       0.0000    0.0000    0.0000   -0.0002    0.0000   -0.0000   -0.0542   -0.0000    0.0000   -0.0000
       71 V      4d2+      -0.0000   -0.0000   -0.0000    0.0001   -0.0000    0.0000    0.0144    0.0000   -0.0000   -0.0000
       72 V      5d2+       0.0000    0.0000    0.0000   -0.0000    0.0000    0.0000    0.0043    0.0000    0.0000   -0.0000
       73 V      6d2+      -0.0000   -0.0000    0.0000   -0.0001    0.0000   -0.0000   -0.0075   -0.0000    0.0000   -0.0000
       74 V      7d2+      -0.0000    0.0000   -0.0000    0.0001   -0.0000   -0.0000   -0.0017   -0.0000   -0.0000   -0.0000
       75 V      8d2+       0.0000   -0.0000    0.0000   -0.0001    0.0000    0.0000    0.0016    0.0000   -0.0000   -0.0000
       76 V      9d2+      -0.0000    0.0000   -0.0000    0.0000   -0.0000    0.0000    0.0015    0.0000    0.0000   -0.0000
       77 V     10d2+       0.0000    0.0000    0.0000   -0.0000    0.0000    0.0000    0.0001    0.0000    0.0000    0.0000
       78 V      4f3-       0.0000    0.0000    0.0000    0.0000    0.0000    0.0000   -0.0000    0.0000   -0.0000   -0.0000
       79 V      5f3-      -0.0000   -0.0000   -0.0000   -0.0000   -0.0000   -0.0000   -0.0000    0.0000   -0.0000    0.0000
       80 V      6f3-       0.0000    0.0000    0.0000    0.0000   -0.0000    0.0000    0.0000   -0.0000    0.0000   -0.0000
       81 V      7f3-      -0.0000   -0.0000   -0.0000   -0.0000    0.0000   -0.0000   -0.0000    0.0000   -0.0000    0.0000
       82 V      8f3-       0.0000    0.0000    0.0000    0.0000    0.0000    0.0000   -0.0000    0.0000   -0.0000   -0.0000
       83 V      9f3-      -0.0000   -0.0000   -0.0000    0.0000    0.0000    0.0000   -0.0000   -0.0000   -0.0000    0.0000
       84 V      4f2-       0.0000    0.0000   -0.0001   -0.0000    0.0000   -0.0000    0.0000   -0.0143   -0.0000    0.0000
       85 V      5f2-      -0.0000   -0.0000    0.0001    0.0000   -0.0000    0.0000   -0.0000    0.0007    0.0000    0.0000
       86 V      6f2-       0.0000    0.0000   -0.0000   -0.0000    0.0000   -0.0000   -0.0000    0.0048    0.0000   -0.0000
       87 V      7f2-       0.0000   -0.0000    0.0000    0.0000   -0.0000   -0.0000    0.0000   -0.0025   -0.0000    0.0000
       88 V      8f2-      -0.0000   -0.0000    0.0000    0.0000   -0.0000    0.0000    0.0000   -0.0009   -0.0000    0.0000
       89 V      9f2-       0.0000    0.0000   -0.0000   -0.0000    0.0000   -0.0000   -0.0000    0.0011    0.0000    0.0000
       90 V      4f1-       0.0000    0.0000   -0.0001   -0.0000    0.0000    0.0000    0.0000   -0.0104   -0.0000   -0.0000
       91 V      5f1-      -0.0000   -0.0000    0.0001    0.0000   -0.0000   -0.0000   -0.0000    0.0008    0.0000   -0.0000
       92 V      6f1-       0.0000    0.0000   -0.0001   -0.0000    0.0000    0.0000   -0.0000    0.0025    0.0000   -0.0000
       93 V      7f1-      -0.0000   -0.0000    0.0000    0.0000   -0.0000   -0.0000    0.0000   -0.0011    0.0000    0.0000
       94 V      8f1-       0.0000    0.0000   -0.0000   -0.0000    0.0000    0.0000    0.0000   -0.0004    0.0000    0.0000
       95 V      9f1-      -0.0000   -0.0000    0.0000    0.0000   -0.0000    0.0000   -0.0000    0.0003   -0.0000    0.0000
       96 V      4f0        0.0000   -0.0003    0.0000   -0.0000   -0.0001    0.0318   -0.0000   -0.0000   -0.0139    0.0320
       97 V      5f0       -0.0000    0.0002   -0.0000    0.0000    0.0001   -0.0046    0.0000    0.0000    0.0006    0.0395
       98 V      6f0        0.0000   -0.0001    0.0000   -0.0000   -0.0001   -0.0083    0.0000    0.0000    0.0035    0.0122
       99 V      7f0       -0.0000    0.0000   -0.0000    0.0000    0.0001    0.0055   -0.0000   -0.0000   -0.0013    0.0020
      100 V      8f0        0.0000    0.0000    0.0000   -0.0000   -0.0001    0.0013   -0.0000    0.0000   -0.0005    0.0011
      101 V      9f0       -0.0000   -0.0000   -0.0000    0.0000    0.0000   -0.0020    0.0000    0.0000    0.0003    0.0011
      102 V      4f1+       0.0000   -0.0000    0.0000   -0.0001    0.0000    0.0000   -0.0104   -0.0000    0.0000    0.0000
      103 V      5f1+      -0.0000    0.0000   -0.0000    0.0001   -0.0000   -0.0000    0.0008    0.0000   -0.0000    0.0000
      104 V      6f1+       0.0000   -0.0000    0.0000   -0.0001    0.0000   -0.0000    0.0025    0.0000   -0.0000    0.0000
      105 V      7f1+      -0.0000    0.0000   -0.0000    0.0000   -0.0000    0.0000   -0.0011   -0.0000    0.0000    0.0000
      106 V      8f1+       0.0000    0.0000    0.0000   -0.0000    0.0000    0.0000   -0.0004   -0.0000    0.0000    0.0000
      107 V      9f1+      -0.0000   -0.0000   -0.0000    0.0000   -0.0000   -0.0000    0.0003    0.0000   -0.0000    0.0000
      108 V      4f2+       0.0000    0.0000   -0.0000    0.0001   -0.0000    0.0000    0.0143    0.0000   -0.0000   -0.0000
      109 V      5f2+       0.0000   -0.0000    0.0000   -0.0001    0.0000    0.0000   -0.0007   -0.0000    0.0000    0.0000
      110 V      6f2+      -0.0000    0.0000   -0.0000    0.0000   -0.0000   -0.0000   -0.0048   -0.0000    0.0000    0.0000
      111 V      7f2+       0.0000   -0.0000    0.0000   -0.0000    0.0000   -0.0000    0.0025    0.0000   -0.0000   -0.0000
      112 V      8f2+       0.0000    0.0000    0.0000   -0.0000    0.0000    0.0000    0.0009    0.0000    0.0000   -0.0000
      113 V      9f2+      -0.0000   -0.0000   -0.0000    0.0000   -0.0000   -0.0000   -0.0011   -0.0000    0.0000    0.0000
      114 V      4f3+       0.0000   -0.0002   -0.0000    0.0000    0.0001    0.0205    0.0000    0.0000    0.0159    0.0216
      115 V      5f3+      -0.0000    0.0001    0.0000   -0.0000   -0.0000   -0.0030    0.0000    0.0000   -0.0007    0.0233
      116 V      6f3+       0.0000   -0.0001    0.0000    0.0000    0.0000   -0.0053   -0.0000   -0.0000   -0.0051    0.0058
      117 V      7f3+      -0.0000    0.0000    0.0000   -0.0000   -0.0000    0.0035    0.0000   -0.0000    0.0025    0.0009
      118 V      8f3+       0.0000    0.0000   -0.0000    0.0000   -0.0000    0.0008    0.0000    0.0000    0.0010    0.0006
      119 V      9f3+      -0.0000   -0.0000    0.0000   -0.0000    0.0000   -0.0013   -0.0000    0.0000   -0.0011    0.0005
      120 V      5g4-       0.0000    0.0000   -0.0001   -0.0000    0.0000   -0.0000    0.0000   -0.0128   -0.0000   -0.0000
      121 V      6g4-      -0.0000   -0.0000    0.0001    0.0000   -0.0000    0.0000    0.0000   -0.0025   -0.0000   -0.0000
      122 V      7g4-       0.0000    0.0000   -0.0000   -0.0000    0.0000   -0.0000   -0.0000    0.0040    0.0000   -0.0000
      123 V      8g4-      -0.0000   -0.0000    0.0000    0.0000   -0.0000    0.0000    0.0000   -0.0005   -0.0000   -0.0000
      124 V      5g3-      -0.0000   -0.0000   -0.0000   -0.0000   -0.0000    0.0000    0.0000   -0.0000    0.0000   -0.0000
      125 V      6g3-       0.0000    0.0000    0.0000    0.0000   -0.0000   -0.0000    0.0000   -0.0000   -0.0000   -0.0000
      126 V      7g3-      -0.0000   -0.0000    0.0000    0.0000    0.0000    0.0000   -0.0000    0.0000    0.0000   -0.0000
      127 V      8g3-       0.0000    0.0000   -0.0000   -0.0000   -0.0000   -0.0000    0.0000   -0.0000   -0.0000   -0.0000
      128 V      5g2-      -0.0000    0.0000    0.0000    0.0000   -0.0000   -0.0000   -0.0000    0.0011    0.0000   -0.0000
      129 V      6g2-       0.0000    0.0000    0.0000    0.0000    0.0000    0.0000   -0.0000    0.0002   -0.0000    0.0000
      130 V      7g2-      -0.0000   -0.0000   -0.0000   -0.0000    0.0000   -0.0000    0.0000   -0.0007   -0.0000   -0.0000
      131 V      8g2-       0.0000    0.0000    0.0000    0.0000   -0.0000    0.0000   -0.0000    0.0003    0.0000    0.0000
      132 V      5g1-       0.0000    0.0000   -0.0001   -0.0000    0.0000   -0.0000    0.0000   -0.0159   -0.0000   -0.0000
      133 V      6g1-       0.0000   -0.0000    0.0001    0.0000   -0.0000   -0.0000    0.0000   -0.0031   -0.0000   -0.0000
      134 V      7g1-      -0.0000    0.0000   -0.0000   -0.0000    0.0000    0.0000   -0.0000    0.0049    0.0000   -0.0000
      135 V      8g1-       0.0000   -0.0000    0.0000    0.0000   -0.0000   -0.0000    0.0000   -0.0005   -0.0000   -0.0000
      136 V      5g0        0.0000   -0.0000    0.0000   -0.0000   -0.0002    0.0019   -0.0000   -0.0000   -0.0266    0.0010
      137 V      6g0       -0.0000    0.0000   -0.0000    0.0000    0.0001    0.0003   -0.0000   -0.0000   -0.0054    0.0036
      138 V      7g0       -0.0000   -0.0000    0.0000   -0.0000   -0.0000   -0.0007    0.0000    0.0000    0.0088    0.0021
      139 V      8g0        0.0000    0.0000   -0.0000    0.0000    0.0000    0.0002    0.0000   -0.0000   -0.0013    0.0002
      140 V      5g1+       0.0000   -0.0000    0.0000   -0.0001    0.0000    0.0000   -0.0159   -0.0000    0.0000    0.0000
      141 V      6g1+      -0.0000    0.0000   -0.0000    0.0001   -0.0000   -0.0000   -0.0031   -0.0000    0.0000    0.0000
      142 V      7g1+       0.0000   -0.0000    0.0000   -0.0000    0.0000    0.0000    0.0049    0.0000   -0.0000   -0.0000
      143 V      8g1+       0.0000    0.0000   -0.0000    0.0000   -0.0000    0.0000   -0.0005   -0.0000    0.0000    0.0000
      144 V      5g2+       0.0000   -0.0000    0.0000   -0.0000    0.0000    0.0000   -0.0011   -0.0000    0.0000    0.0000
      145 V      6g2+      -0.0000    0.0000    0.0000   -0.0000   -0.0000   -0.0000   -0.0002   -0.0000   -0.0000    0.0000
      146 V      7g2+       0.0000   -0.0000   -0.0000    0.0000    0.0000   -0.0000    0.0007    0.0000   -0.0000    0.0000
      147 V      8g2+       0.0000    0.0000    0.0000   -0.0000   -0.0000    0.0000   -0.0003   -0.0000    0.0000    0.0000
      148 V      5g3+      -0.0000    0.0001    0.0000   -0.0000   -0.0001   -0.0122   -0.0000    0.0000   -0.0164   -0.0061
      149 V      6g3+       0.0000   -0.0001    0.0000    0.0000    0.0001   -0.0012   -0.0000   -0.0000   -0.0032   -0.0072
      150 V      7g3+       0.0000    0.0000   -0.0000    0.0000   -0.0000    0.0044    0.0000   -0.0000    0.0056   -0.0008
      151 V      8g3+      -0.0000   -0.0000    0.0000   -0.0000    0.0000   -0.0015    0.0000    0.0000   -0.0010    0.0011
      152 V      5g4+       0.0000   -0.0000    0.0000   -0.0001    0.0000    0.0000   -0.0128   -0.0000    0.0000    0.0000
      153 V      6g4+      -0.0000    0.0000   -0.0000    0.0001   -0.0000   -0.0000   -0.0025   -0.0000    0.0000    0.0000
      154 V      7g4+       0.0000   -0.0000    0.0000   -0.0000    0.0000   -0.0000    0.0040    0.0000   -0.0000    0.0000
      155 V      8g4+       0.0000    0.0000   -0.0000    0.0000   -0.0000    0.0000   -0.0005   -0.0000    0.0000    0.0000
      156 V      6h5-      -0.0000   -0.0000    0.0000    0.0000   -0.0000    0.0000   -0.0000    0.0018   -0.0000   -0.0000
      157 V      7h5-       0.0000    0.0000   -0.0000   -0.0000   -0.0000    0.0000   -0.0000    0.0002   -0.0000   -0.0000
      158 V      6h4-      -0.0000   -0.0000    0.0001    0.0000   -0.0000    0.0000   -0.0000    0.0086    0.0000   -0.0000
      159 V      7h4-      -0.0000    0.0000   -0.0000   -0.0000    0.0000   -0.0000   -0.0000    0.0014    0.0000    0.0000
      160 V      6h3-      -0.0000   -0.0000   -0.0000    0.0000   -0.0000    0.0000   -0.0000    0.0000   -0.0000    0.0000
      161 V      7h3-       0.0000    0.0000    0.0000   -0.0000   -0.0000   -0.0000   -0.0000    0.0000   -0.0000   -0.0000
      162 V      6h2-      -0.0000   -0.0000    0.0000    0.0000   -0.0000    0.0000   -0.0000    0.0027    0.0000   -0.0000
      163 V      7h2-      -0.0000    0.0000   -0.0000   -0.0000    0.0000   -0.0000   -0.0000    0.0004    0.0000   -0.0000
      164 V      6h1-       0.0000    0.0000    0.0000    0.0000   -0.0000   -0.0000   -0.0000    0.0020    0.0000   -0.0000
      165 V      7h1-      -0.0000   -0.0000   -0.0000   -0.0000    0.0000    0.0000   -0.0000    0.0001   -0.0000   -0.0000
      166 V      6h0        0.0000   -0.0000   -0.0000   -0.0000   -0.0000    0.0026   -0.0000   -0.0000   -0.0056   -0.0004
      167 V      7h0       -0.0000    0.0000    0.0000    0.0000    0.0000    0.0001   -0.0000   -0.0000   -0.0009    0.0004
      168 V      6h1+      -0.0000    0.0000   -0.0000    0.0000   -0.0000   -0.0000    0.0020    0.0000   -0.0000    0.0000
      169 V      7h1+       0.0000   -0.0000    0.0000   -0.0000    0.0000    0.0000    0.0001    0.0000    0.0000    0.0000
      170 V      6h2+      -0.0000    0.0000    0.0000   -0.0000    0.0000   -0.0000   -0.0027   -0.0000    0.0000    0.0000
      171 V      7h2+       0.0000   -0.0000   -0.0000    0.0000   -0.0000   -0.0000   -0.0004   -0.0000   -0.0000   -0.0000
      172 V      6h3+       0.0000   -0.0000    0.0000    0.0000    0.0001    0.0042    0.0000   -0.0000    0.0090    0.0010
      173 V      7h3+      -0.0000    0.0000    0.0000   -0.0000   -0.0000    0.0002    0.0000    0.0000    0.0016    0.0011
      174 V      6h4+      -0.0000    0.0000   -0.0000    0.0001   -0.0000   -0.0000    0.0086    0.0000   -0.0000   -0.0000
      175 V      7h4+       0.0000   -0.0000    0.0000   -0.0000    0.0000    0.0000    0.0014    0.0000   -0.0000   -0.0000
      176 V      6h5+      -0.0000    0.0000    0.0000   -0.0000    0.0000   -0.0000   -0.0018   -0.0000   -0.0000    0.0000
      177 V      7h5+       0.0000   -0.0000   -0.0000    0.0000   -0.0000   -0.0000   -0.0002   -0.0000   -0.0000   -0.0000

          Orbital           11        12        13        14        15        16        17        18        19        20    
          Energy           -0.1139   -0.1139   -0.0991   -0.0689   -0.0597   -0.0597   -0.0377   -0.0377   -0.0274   -0.0190
          Occ. No.          0.0000    0.0000    0.0000    0.0000    0.0000    0.0000    0.0000    0.0000    0.0000    0.0000

        1 V      1s         0.0000    0.0000    0.0000    0.0000    0.0000   -0.0000    0.0000   -0.0000    0.0000   -0.0000
        2 V      2s        -0.0000   -0.0000    0.0000    0.0001   -0.0000   -0.0000   -0.0000   -0.0000    0.0000   -0.0000
        3 V      3s        -0.0000   -0.0000   -0.0028   -0.0074   -0.0000   -0.0000   -0.0000   -0.0000    0.0051   -0.0000
        4 V      4s        -0.0000    0.0000   -0.1794   -0.0764   -0.0000   -0.0000    0.0000    0.0000    0.0566   -0.0000
        5 V      5s        -0.0000    0.0000   -0.1080    0.8117    0.0000    0.0000    0.0000    0.0000   -0.0096    0.0000
        6 V      6s        -0.0000   -0.0000   -0.0150    0.3566    0.0000    0.0000   -0.0000   -0.0000   -0.0480    0.0000
        7 V      7s         0.0000   -0.0000   -0.0036    0.3564    0.0000    0.0000   -0.0000   -0.0000   -0.0631    0.0000
        8 V      8s         0.0000   -0.0000    0.0002    0.1464    0.0000    0.0000   -0.0000   -0.0000   -0.0331    0.0000
        9 V      9s         0.0000   -0.0000    0.0016    0.1263    0.0000    0.0000   -0.0000   -0.0000   -0.0365    0.0000
       10 V     10s         0.0000   -0.0000    0.0008    0.0359    0.0000    0.0000   -0.0000   -0.0000   -0.0117    0.0000
       11 V      2px       -0.0002   -0.0000   -0.0000   -0.0000    0.0000    0.0000   -0.0002   -0.0000   -0.0000    0.0000
       12 V      3px        0.0083    0.0000   -0.0000   -0.0000    0.0045    0.0000   -0.0099   -0.0000   -0.0000   -0.0210
       13 V      4px        0.8529    0.0000    0.0000    0.0000   -0.0231   -0.0000    0.1862    0.0000   -0.0000   -0.3535
       14 V      5px        0.3055    0.0000   -0.0000    0.0000   -0.0108   -0.0000   -0.1777   -0.0000    0.0000    0.0409
       15 V      6px        0.3497    0.0000   -0.0000    0.0000   -0.0255   -0.0000   -0.4381   -0.0000    0.0000    0.2981
       16 V      7px        0.1192    0.0000   -0.0000    0.0000   -0.0159   -0.0000   -0.3475   -0.0000    0.0000    0.3105
       17 V      8px        0.0730    0.0000   -0.0000    0.0000   -0.0145   -0.0000   -0.3744   -0.0000    0.0000    0.3622
       18 V      9px        0.0198    0.0000   -0.0000    0.0000   -0.0060   -0.0000   -0.1610   -0.0000    0.0000    0.1641
       19 V     10px        0.0015    0.0000    0.0000    0.0000   -0.0011   -0.0000   -0.0283   -0.0000    0.0000    0.0308
       20 V      2py        0.0000   -0.0002    0.0000   -0.0000    0.0000   -0.0000    0.0000   -0.0002   -0.0000    0.0000
       21 V      3py       -0.0000    0.0083    0.0000    0.0000    0.0000   -0.0045    0.0000   -0.0099    0.0000   -0.0000
       22 V      4py       -0.0000    0.8529    0.0000    0.0000   -0.0000    0.0231   -0.0000    0.1862    0.0000   -0.0000
       23 V      5py       -0.0000    0.3055    0.0000   -0.0000   -0.0000    0.0108    0.0000   -0.1777    0.0000    0.0000
       24 V      6py       -0.0000    0.3497    0.0000   -0.0000   -0.0000    0.0255    0.0000   -0.4381   -0.0000    0.0000
       25 V      7py       -0.0000    0.1192    0.0000   -0.0000   -0.0000    0.0159    0.0000   -0.3475   -0.0000    0.0000
       26 V      8py       -0.0000    0.0730   -0.0000   -0.0000   -0.0000    0.0145    0.0000   -0.3744   -0.0000    0.0000
       27 V      9py       -0.0000    0.0198   -0.0000   -0.0000   -0.0000    0.0060    0.0000   -0.1610   -0.0000    0.0000
       28 V     10py       -0.0000    0.0015   -0.0000   -0.0000   -0.0000    0.0011    0.0000   -0.0283   -0.0000    0.0000
       29 V      2pz        0.0000    0.0000   -0.0001    0.0000    0.0000   -0.0000    0.0000    0.0000    0.0001   -0.0000
       30 V      3pz        0.0000   -0.0000    0.0141    0.0027    0.0000    0.0000    0.0000    0.0000    0.0131    0.0000
       31 V      4pz       -0.0000   -0.0000    0.7681   -0.0299   -0.0000    0.0000    0.0000    0.0000    0.0064    0.0000
       32 V      5pz       -0.0000   -0.0000    0.3513    0.0618    0.0000    0.0000   -0.0000   -0.0000   -0.0174   -0.0000
       33 V      6pz       -0.0000   -0.0000    0.4352    0.1178    0.0000    0.0000   -0.0000   -0.0000   -0.0884   -0.0000
       34 V      7pz       -0.0000   -0.0000    0.1719    0.0764    0.0000    0.0000   -0.0000   -0.0000   -0.0829   -0.0000
       35 V      8pz       -0.0000   -0.0000    0.1236    0.0749    0.0000    0.0000   -0.0000   -0.0000   -0.0932   -0.0000
       36 V      9pz       -0.0000   -0.0000    0.0395    0.0300    0.0000    0.0000   -0.0000   -0.0000   -0.0422   -0.0000
       37 V     10pz       -0.0000   -0.0000    0.0044    0.0047    0.0000    0.0000   -0.0000   -0.0000   -0.0082   -0.0000
       38 V      3d2-      -0.0000    0.0299   -0.0000    0.0000   -0.0000    0.6858   -0.0000    0.1360   -0.0000    0.0000
       39 V      4d2-      -0.0000    0.0377   -0.0000   -0.0000   -0.0000    0.4011   -0.0000    0.1942   -0.0000    0.0000
       40 V      5d2-      -0.0000    0.0182   -0.0000   -0.0000   -0.0000    0.3409   -0.0000    0.1761   -0.0000    0.0000
       41 V      6d2-      -0.0000    0.0047   -0.0000   -0.0000   -0.0000    0.1585   -0.0000    0.0924   -0.0000    0.0000
       42 V      7d2-      -0.0000    0.0039   -0.0000   -0.0000   -0.0000    0.1232   -0.0000    0.0746   -0.0000    0.0000
       43 V      8d2-      -0.0000    0.0018   -0.0000   -0.0000   -0.0000    0.0558   -0.0000    0.0372   -0.0000    0.0000
       44 V      9d2-      -0.0000    0.0007   -0.0000   -0.0000   -0.0000    0.0250   -0.0000    0.0170   -0.0000    0.0000
       45 V     10d2-      -0.0000    0.0001   -0.0000    0.0000   -0.0000    0.0045   -0.0000    0.0030   -0.0000    0.0000
       46 V      3d1-      -0.0000    0.1129    0.0000    0.0000    0.0000   -0.3622   -0.0000    0.2879   -0.0000    0.0000
       47 V      4d1-      -0.0000    0.1182    0.0000    0.0000    0.0000   -0.1855   -0.0000    0.3505   -0.0000    0.0000
       48 V      5d1-      -0.0000    0.0760    0.0000   -0.0000    0.0000   -0.1571   -0.0000    0.3114   -0.0000    0.0000
       49 V      6d1-      -0.0000    0.0284   -0.0000   -0.0000    0.0000   -0.0736   -0.0000    0.1588   -0.0000    0.0000
       50 V      7d1-      -0.0000    0.0213   -0.0000   -0.0000    0.0000   -0.0570   -0.0000    0.1263   -0.0000    0.0000
       51 V      8d1-      -0.0000    0.0085   -0.0000   -0.0000    0.0000   -0.0252   -0.0000    0.0609   -0.0000    0.0000
       52 V      9d1-      -0.0000    0.0035   -0.0000   -0.0000    0.0000   -0.0110   -0.0000    0.0274   -0.0000    0.0000
       53 V     10d1-      -0.0000    0.0005    0.0000   -0.0000    0.0000   -0.0020   -0.0000    0.0048   -0.0000    0.0000
       54 V      3d0       -0.0000   -0.0000    0.0250    0.0753   -0.0000   -0.0000    0.0000    0.0000    0.3864   -0.0000
       55 V      4d0       -0.0000   -0.0000    0.0453    0.0558   -0.0000    0.0000    0.0000    0.0000    0.5574   -0.0000
       56 V      5d0       -0.0000   -0.0000    0.0473    0.0344   -0.0000    0.0000    0.0000    0.0000    0.5596   -0.0000
       57 V      6d0       -0.0000   -0.0000    0.0248    0.0128   -0.0000    0.0000    0.0000    0.0000    0.3153   -0.0000
       58 V      7d0       -0.0000   -0.0000    0.0184    0.0105   -0.0000    0.0000    0.0000    0.0000    0.2563   -0.0000
       59 V      8d0       -0.0000   -0.0000    0.0079    0.0049   -0.0000    0.0000    0.0000    0.0000    0.1303   -0.0000
       60 V      9d0       -0.0000   -0.0000    0.0035    0.0022   -0.0000   -0.0000    0.0000    0.0000    0.0597   -0.0000
       61 V     10d0       -0.0000   -0.0000    0.0007    0.0003   -0.0000   -0.0000    0.0000    0.0000    0.0108   -0.0000
       62 V      3d1+       0.1129    0.0000    0.0000   -0.0000    0.3622    0.0000    0.2879    0.0000    0.0000    0.2073
       63 V      4d1+       0.1182    0.0000    0.0000   -0.0000    0.1855    0.0000    0.3505    0.0000    0.0000    0.3468
       64 V      5d1+       0.0760    0.0000    0.0000   -0.0000    0.1571    0.0000    0.3114    0.0000    0.0000    0.3860
       65 V      6d1+       0.0284    0.0000    0.0000   -0.0000    0.0736    0.0000    0.1588    0.0000    0.0000    0.2341
       66 V      7d1+       0.0213    0.0000    0.0000   -0.0000    0.0570    0.0000    0.1263    0.0000    0.0000    0.1938
       67 V      8d1+       0.0085    0.0000    0.0000   -0.0000    0.0252    0.0000    0.0609    0.0000    0.0000    0.1026
       68 V      9d1+       0.0035    0.0000    0.0000   -0.0000    0.0110    0.0000    0.0274    0.0000    0.0000    0.0478
       69 V     10d1+       0.0005    0.0000    0.0000   -0.0000    0.0020    0.0000    0.0048    0.0000    0.0000    0.0087
       70 V      3d2+      -0.0299   -0.0000   -0.0000   -0.0000    0.6858    0.0000   -0.1360   -0.0000    0.0000   -0.0627
       71 V      4d2+      -0.0377   -0.0000   -0.0000   -0.0000    0.4011    0.0000   -0.1942   -0.0000    0.0000   -0.1790
       72 V      5d2+      -0.0182   -0.0000   -0.0000   -0.0000    0.3409    0.0000   -0.1761   -0.0000    0.0000   -0.2009
       73 V      6d2+      -0.0047   -0.0000   -0.0000   -0.0000    0.1585    0.0000   -0.0924   -0.0000    0.0000   -0.1219
       74 V      7d2+      -0.0039   -0.0000   -0.0000   -0.0000    0.1232    0.0000   -0.0746   -0.0000    0.0000   -0.1000
       75 V      8d2+      -0.0018   -0.0000   -0.0000   -0.0000    0.0558    0.0000   -0.0372   -0.0000    0.0000   -0.0523
       76 V      9d2+      -0.0007   -0.0000   -0.0000   -0.0000    0.0250    0.0000   -0.0170   -0.0000    0.0000   -0.0242
       77 V     10d2+      -0.0001   -0.0000   -0.0000   -0.0000    0.0045    0.0000   -0.0030   -0.0000    0.0000   -0.0044
       78 V      4f3-      -0.0000    0.0000   -0.0000    0.0000   -0.0000   -0.0000   -0.0000    0.0000   -0.0000   -0.0000
       79 V      5f3-      -0.0000    0.0000    0.0000   -0.0000   -0.0000    0.0000   -0.0000    0.0000   -0.0000   -0.0000
       80 V      6f3-      -0.0000    0.0000   -0.0000   -0.0000   -0.0000    0.0000   -0.0000    0.0000   -0.0000    0.0000
       81 V      7f3-      -0.0000    0.0000   -0.0000   -0.0000   -0.0000    0.0000   -0.0000    0.0000   -0.0000    0.0000
       82 V      8f3-       0.0000    0.0000   -0.0000   -0.0000   -0.0000    0.0000   -0.0000    0.0000   -0.0000    0.0000
       83 V      9f3-       0.0000    0.0000   -0.0000    0.0000   -0.0000    0.0000    0.0000    0.0000   -0.0000    0.0000
       84 V      4f2-      -0.0000    0.0013   -0.0000    0.0000   -0.0000    0.0469   -0.0000    0.0220   -0.0000    0.0000
       85 V      5f2-       0.0000   -0.0019   -0.0000   -0.0000   -0.0000    0.0452   -0.0000    0.0229   -0.0000    0.0000
       86 V      6f2-       0.0000   -0.0008   -0.0000   -0.0000   -0.0000    0.0255   -0.0000    0.0161   -0.0000    0.0000
       87 V      7f2-      -0.0000    0.0008   -0.0000   -0.0000   -0.0000    0.0216   -0.0000    0.0156   -0.0000    0.0000
       88 V      8f2-      -0.0000    0.0002   -0.0000   -0.0000   -0.0000    0.0129   -0.0000    0.0096   -0.0000    0.0000
       89 V      9f2-       0.0000   -0.0002   -0.0000   -0.0000   -0.0000    0.0085   -0.0000    0.0063   -0.0000    0.0000
       90 V      4f1-       0.0000   -0.0037    0.0000   -0.0000    0.0000   -0.0178   -0.0000    0.0058   -0.0000    0.0000
       91 V      5f1-       0.0000   -0.0078   -0.0000   -0.0000    0.0000   -0.0201   -0.0000    0.0117   -0.0000    0.0000
       92 V      6f1-       0.0000   -0.0048   -0.0000   -0.0000    0.0000   -0.0136   -0.0000    0.0153   -0.0000    0.0000
       93 V      7f1-       0.0000   -0.0022   -0.0000   -0.0000    0.0000   -0.0109   -0.0000    0.0162   -0.0000    0.0000
       94 V      8f1-       0.0000   -0.0010   -0.0000   -0.0000    0.0000   -0.0065   -0.0000    0.0112   -0.0000    0.0000
       95 V      9f1-       0.0000   -0.0006   -0.0000   -0.0000    0.0000   -0.0046   -0.0000    0.0085   -0.0000    0.0000
       96 V      4f0        0.0000    0.0000   -0.0032    0.0172    0.0000    0.0000   -0.0000   -0.0000   -0.0031   -0.0000
       97 V      5f0        0.0000    0.0000   -0.0072    0.0217    0.0000    0.0000   -0.0000   -0.0000    0.0158   -0.0000
       98 V      6f0        0.0000   -0.0000   -0.0062    0.0068    0.0000    0.0000   -0.0000   -0.0000    0.0281   -0.0000
       99 V      7f0        0.0000   -0.0000   -0.0041    0.0009    0.0000   -0.0000   -0.0000   -0.0000    0.0270   -0.0000
      100 V      8f0       -0.0000   -0.0000   -0.0021    0.0004    0.0000   -0.0000   -0.0000   -0.0000    0.0188   -0.0000
      101 V      9f0       -0.0000   -0.0000   -0.0012    0.0004   -0.0000   -0.0000   -0.0000   -0.0000    0.0150   -0.0000
      102 V      4f1+      -0.0037   -0.0000    0.0000   -0.0000    0.0178    0.0000    0.0058    0.0000    0.0000    0.0157
      103 V      5f1+      -0.0078   -0.0000    0.0000   -0.0000    0.0201    0.0000    0.0117    0.0000    0.0000    0.0321
      104 V      6f1+      -0.0048   -0.0000    0.0000   -0.0000    0.0136    0.0000    0.0153    0.0000    0.0000    0.0321
      105 V      7f1+      -0.0022   -0.0000    0.0000   -0.0000    0.0109    0.0000    0.0162    0.0000    0.0000    0.0287
      106 V      8f1+      -0.0010   -0.0000    0.0000   -0.0000    0.0065    0.0000    0.0112    0.0000    0.0000    0.0188
      107 V      9f1+      -0.0006   -0.0000    0.0000   -0.0000    0.0046    0.0000    0.0085    0.0000    0.0000    0.0139
      108 V      4f2+      -0.0013   -0.0000    0.0000   -0.0000    0.0469    0.0000   -0.0220   -0.0000    0.0000   -0.0207
      109 V      5f2+       0.0019    0.0000    0.0000   -0.0000    0.0452    0.0000   -0.0229   -0.0000    0.0000   -0.0304
      110 V      6f2+       0.0008    0.0000    0.0000   -0.0000    0.0255    0.0000   -0.0161   -0.0000    0.0000   -0.0238
      111 V      7f2+      -0.0008   -0.0000    0.0000   -0.0000    0.0216    0.0000   -0.0156   -0.0000    0.0000   -0.0209
      112 V      8f2+      -0.0002   -0.0000    0.0000   -0.0000    0.0129    0.0000   -0.0096   -0.0000    0.0000   -0.0138
      113 V      9f2+       0.0002    0.0000    0.0000   -0.0000    0.0085    0.0000   -0.0063   -0.0000    0.0000   -0.0101
      114 V      4f3+       0.0000    0.0000    0.0080    0.0136    0.0000    0.0000    0.0000    0.0000    0.0134   -0.0000
      115 V      5f3+       0.0000    0.0000    0.0105    0.0140    0.0000    0.0000    0.0000    0.0000    0.0141   -0.0000
      116 V      6f3+       0.0000    0.0000    0.0045    0.0032    0.0000    0.0000   -0.0000   -0.0000    0.0085   -0.0000
      117 V      7f3+       0.0000    0.0000    0.0021    0.0003    0.0000    0.0000   -0.0000   -0.0000    0.0072   -0.0000
      118 V      8f3+       0.0000    0.0000    0.0012    0.0001    0.0000    0.0000   -0.0000   -0.0000    0.0044   -0.0000
      119 V      9f3+       0.0000    0.0000    0.0009    0.0001    0.0000    0.0000   -0.0000   -0.0000    0.0030   -0.0000
      120 V      5g4-       0.0000   -0.0023   -0.0000   -0.0000    0.0000   -0.0017   -0.0000    0.0014   -0.0000    0.0000
      121 V      6g4-       0.0000   -0.0061   -0.0000   -0.0000    0.0000   -0.0017    0.0000   -0.0016   -0.0000    0.0000
      122 V      7g4-       0.0000   -0.0039   -0.0000   -0.0000    0.0000   -0.0005    0.0000   -0.0021   -0.0000    0.0000
      123 V      8g4-       0.0000   -0.0011   -0.0000   -0.0000    0.0000   -0.0000    0.0000   -0.0003   -0.0000    0.0000
      124 V      5g3-      -0.0000   -0.0000   -0.0000   -0.0000   -0.0000    0.0000   -0.0000    0.0000   -0.0000    0.0000
      125 V      6g3-       0.0000   -0.0000    0.0000   -0.0000    0.0000   -0.0000   -0.0000    0.0000   -0.0000    0.0000
      126 V      7g3-       0.0000   -0.0000   -0.0000   -0.0000    0.0000   -0.0000   -0.0000    0.0000   -0.0000    0.0000
      127 V      8g3-       0.0000   -0.0000    0.0000   -0.0000   -0.0000   -0.0000   -0.0000    0.0000   -0.0000    0.0000
      128 V      5g2-       0.0000   -0.0012    0.0000   -0.0000    0.0000   -0.0029    0.0000   -0.0034    0.0000   -0.0000
      129 V      6g2-       0.0000   -0.0014    0.0000   -0.0000    0.0000   -0.0028    0.0000   -0.0031    0.0000   -0.0000
      130 V      7g2-       0.0000   -0.0006    0.0000   -0.0000    0.0000   -0.0011    0.0000   -0.0008    0.0000    0.0000
      131 V      8g2-       0.0000   -0.0004    0.0000    0.0000    0.0000   -0.0006    0.0000   -0.0005    0.0000    0.0000
      132 V      5g1-       0.0000   -0.0049   -0.0000   -0.0000   -0.0000    0.0090    0.0000   -0.0036   -0.0000    0.0000
      133 V      6g1-       0.0000   -0.0097   -0.0000   -0.0000   -0.0000    0.0071    0.0000   -0.0079   -0.0000    0.0000
      134 V      7g1-       0.0000   -0.0056   -0.0000   -0.0000   -0.0000    0.0009    0.0000   -0.0050   -0.0000    0.0000
      135 V      8g1-       0.0000   -0.0017   -0.0000   -0.0000   -0.0000    0.0003    0.0000   -0.0015   -0.0000    0.0000
      136 V      5g0       -0.0000    0.0000   -0.0057   -0.0005    0.0000    0.0000   -0.0000   -0.0000   -0.0092   -0.0000
      137 V      6g0        0.0000   -0.0000   -0.0106    0.0010    0.0000    0.0000   -0.0000   -0.0000   -0.0094   -0.0000
      138 V      7g0        0.0000   -0.0000   -0.0057    0.0008    0.0000    0.0000   -0.0000   -0.0000   -0.0032   -0.0000
      139 V      8g0        0.0000   -0.0000   -0.0018   -0.0001    0.0000    0.0000   -0.0000   -0.0000   -0.0019   -0.0000
      140 V      5g1+      -0.0049   -0.0000    0.0000    0.0000   -0.0090   -0.0000   -0.0036   -0.0000    0.0000    0.0026
      141 V      6g1+      -0.0097   -0.0000   -0.0000    0.0000   -0.0071   -0.0000   -0.0079   -0.0000    0.0000    0.0048
      142 V      7g1+      -0.0056   -0.0000   -0.0000    0.0000   -0.0009   -0.0000   -0.0050   -0.0000    0.0000    0.0020
      143 V      8g1+      -0.0017   -0.0000   -0.0000    0.0000   -0.0003   -0.0000   -0.0015   -0.0000    0.0000    0.0002
      144 V      5g2+       0.0012    0.0000   -0.0000    0.0000   -0.0029   -0.0000    0.0034    0.0000    0.0000    0.0017
      145 V      6g2+       0.0014    0.0000   -0.0000    0.0000   -0.0028   -0.0000    0.0031    0.0000    0.0000    0.0013
      146 V      7g2+       0.0006    0.0000   -0.0000    0.0000   -0.0011   -0.0000    0.0008    0.0000    0.0000   -0.0000
      147 V      8g2+       0.0004    0.0000   -0.0000    0.0000   -0.0006   -0.0000    0.0005    0.0000    0.0000   -0.0001
      148 V      5g3+      -0.0000    0.0000   -0.0038   -0.0035   -0.0000   -0.0000   -0.0000   -0.0000   -0.0015   -0.0000
      149 V      6g3+      -0.0000    0.0000   -0.0065   -0.0038   -0.0000   -0.0000    0.0000    0.0000   -0.0008   -0.0000
      150 V      7g3+      -0.0000    0.0000   -0.0029   -0.0002    0.0000    0.0000    0.0000    0.0000    0.0003    0.0000
      151 V      8g3+      -0.0000   -0.0000   -0.0006    0.0008    0.0000    0.0000    0.0000    0.0000    0.0001    0.0000
      152 V      5g4+      -0.0023   -0.0000    0.0000   -0.0000    0.0017    0.0000    0.0014    0.0000    0.0000    0.0052
      153 V      6g4+      -0.0061   -0.0000    0.0000   -0.0000    0.0017    0.0000   -0.0016   -0.0000    0.0000    0.0075
      154 V      7g4+      -0.0039   -0.0000   -0.0000   -0.0000    0.0005    0.0000   -0.0021   -0.0000    0.0000    0.0033
      155 V      8g4+      -0.0011   -0.0000    0.0000    0.0000    0.0000    0.0000   -0.0003   -0.0000    0.0000    0.0010
      156 V      6h5-       0.0000   -0.0002    0.0000    0.0000    0.0000   -0.0076    0.0000   -0.0017    0.0000   -0.0000
      157 V      7h5-      -0.0000    0.0000    0.0000   -0.0000    0.0000   -0.0057    0.0000   -0.0012    0.0000   -0.0000
      158 V      6h4-       0.0000   -0.0001    0.0000   -0.0000   -0.0000    0.0025    0.0000   -0.0027    0.0000   -0.0000
      159 V      7h4-      -0.0000    0.0014    0.0000    0.0000   -0.0000    0.0021    0.0000   -0.0010    0.0000   -0.0000
      160 V      6h3-      -0.0000   -0.0000   -0.0000    0.0000    0.0000   -0.0000    0.0000   -0.0000   -0.0000    0.0000
      161 V      7h3-      -0.0000   -0.0000    0.0000   -0.0000    0.0000    0.0000    0.0000   -0.0000    0.0000    0.0000
      162 V      6h2-       0.0000   -0.0001    0.0000   -0.0000    0.0000   -0.0060    0.0000   -0.0015    0.0000   -0.0000
      163 V      7h2-      -0.0000    0.0004    0.0000   -0.0000    0.0000   -0.0046    0.0000   -0.0010    0.0000   -0.0000
      164 V      6h1-       0.0000   -0.0016   -0.0000   -0.0000   -0.0000    0.0047    0.0000   -0.0046    0.0000   -0.0000
      165 V      7h1-       0.0000   -0.0011   -0.0000   -0.0000   -0.0000    0.0039    0.0000   -0.0037    0.0000   -0.0000
      166 V      6h0        0.0000   -0.0000   -0.0009   -0.0011    0.0000    0.0000   -0.0000   -0.0000   -0.0074    0.0000
      167 V      7h0        0.0000   -0.0000   -0.0011   -0.0005    0.0000   -0.0000   -0.0000   -0.0000   -0.0061    0.0000
      168 V      6h1+      -0.0016   -0.0000   -0.0000    0.0000   -0.0047   -0.0000   -0.0046   -0.0000   -0.0000   -0.0032
      169 V      7h1+      -0.0011   -0.0000    0.0000    0.0000   -0.0039   -0.0000   -0.0037   -0.0000   -0.0000   -0.0029
      170 V      6h2+       0.0001    0.0000    0.0000    0.0000   -0.0060   -0.0000    0.0015    0.0000   -0.0000    0.0011
      171 V      7h2+      -0.0004   -0.0000    0.0000    0.0000   -0.0046   -0.0000    0.0010    0.0000   -0.0000    0.0014
      172 V      6h3+       0.0000   -0.0000    0.0010    0.0004    0.0000    0.0000    0.0000    0.0000   -0.0016    0.0000
      173 V      7h3+      -0.0000   -0.0000    0.0018    0.0004   -0.0000   -0.0000   -0.0000   -0.0000   -0.0017    0.0000
      174 V      6h4+      -0.0001   -0.0000   -0.0000    0.0000   -0.0025   -0.0000   -0.0027   -0.0000   -0.0000   -0.0032
      175 V      7h4+       0.0014    0.0000   -0.0000    0.0000   -0.0021   -0.0000   -0.0010   -0.0000   -0.0000   -0.0034
      176 V      6h5+       0.0002    0.0000    0.0000    0.0000   -0.0076   -0.0000    0.0017    0.0000   -0.0000    0.0009
      177 V      7h5+      -0.0000   -0.0000    0.0000    0.0000   -0.0057   -0.0000    0.0012    0.0000   -0.0000    0.0009

          Orbital           21        22        23        24        25        26        27        28        29        30    
          Energy           -0.0190   -0.0173    0.0176    0.0176    0.0363    0.0754    0.0754    0.0779    0.0779    0.0798
          Occ. No.          0.0000    0.0000    0.0000    0.0000    0.0000    0.0000    0.0000    0.0000    0.0000    0.0000

        1 V      1s        -0.0000    0.0000    0.0000    0.0000   -0.0000   -0.0000   -0.0000    0.0000   -0.0000   -0.0000
        2 V      2s         0.0000   -0.0000    0.0000    0.0000   -0.0001    0.0000    0.0000    0.0000    0.0000   -0.0000
        3 V      3s         0.0000    0.0023    0.0000   -0.0000    0.0112    0.0020    0.0000    0.0000    0.0000    0.0000
        4 V      4s        -0.0000    0.0947   -0.0000    0.0000    0.1223    0.0208    0.0000   -0.0000   -0.0000    0.0000
        5 V      5s         0.0000   -0.0537    0.0000   -0.0000   -0.4402   -0.0224   -0.0000    0.0000   -0.0000   -0.0000
        6 V      6s         0.0000   -0.0954   -0.0000   -0.0000    0.1673   -0.0013   -0.0000   -0.0000   -0.0000   -0.0000
        7 V      7s         0.0000   -0.1397   -0.0000   -0.0000    0.4727    0.0140    0.0000   -0.0000    0.0000    0.0000
        8 V      8s         0.0000   -0.0801   -0.0000    0.0000    0.3809    0.0161    0.0000   -0.0000    0.0000    0.0000
        9 V      9s         0.0000   -0.0930   -0.0000    0.0000    0.5312    0.0254    0.0000   -0.0000    0.0000    0.0000
       10 V     10s         0.0000   -0.0306   -0.0000    0.0000    0.1859    0.0092    0.0000   -0.0000    0.0000    0.0000
       11 V      2px       -0.0000   -0.0000    0.0000   -0.0000    0.0000    0.0000    0.0000    0.0001    0.0000   -0.0000
       12 V      3px        0.0000   -0.0000   -0.0037    0.0000    0.0000   -0.0000   -0.0000    0.0086    0.0000   -0.0004
       13 V      4px        0.0000   -0.0000   -0.0086    0.0000    0.0000   -0.0000   -0.0000    0.0000    0.0000    0.0201
       14 V      5px       -0.0000    0.0000   -0.0030    0.0000    0.0000   -0.0000   -0.0000    0.0171    0.0000    0.0043
       15 V      6px       -0.0000    0.0000   -0.0021    0.0000   -0.0000   -0.0000   -0.0000    0.0053    0.0000    0.0004
       16 V      7px       -0.0000    0.0000   -0.0048    0.0000   -0.0000    0.0000    0.0000   -0.0104   -0.0000   -0.0047
       17 V      8px       -0.0000    0.0000   -0.0085    0.0000   -0.0000    0.0000    0.0000   -0.0188   -0.0000   -0.0071
       18 V      9px       -0.0000    0.0000   -0.0045    0.0000   -0.0000    0.0000    0.0000   -0.0112   -0.0000   -0.0036
       19 V     10px       -0.0000    0.0000   -0.0009    0.0000   -0.0000    0.0000    0.0000   -0.0028   -0.0000   -0.0007
       20 V      2py        0.0000   -0.0000   -0.0000   -0.0000    0.0000    0.0000    0.0000    0.0000   -0.0001    0.0000
       21 V      3py       -0.0210   -0.0000    0.0000    0.0037    0.0000   -0.0000    0.0000    0.0000   -0.0086    0.0000
       22 V      4py       -0.3535   -0.0000    0.0000    0.0086    0.0000   -0.0000   -0.0000    0.0000   -0.0000   -0.0000
       23 V      5py        0.0409   -0.0000    0.0000    0.0030    0.0000   -0.0000    0.0000    0.0000   -0.0171   -0.0000
       24 V      6py        0.2981    0.0000    0.0000    0.0021    0.0000    0.0000    0.0000    0.0000   -0.0053   -0.0000
       25 V      7py        0.3105    0.0000    0.0000    0.0048   -0.0000    0.0000    0.0000   -0.0000    0.0104    0.0000
       26 V      8py        0.3622    0.0000    0.0000    0.0085   -0.0000    0.0000    0.0000   -0.0000    0.0188    0.0000
       27 V      9py        0.1641    0.0000    0.0000    0.0045   -0.0000    0.0000    0.0000   -0.0000    0.0112    0.0000
       28 V     10py        0.0308    0.0000    0.0000    0.0009   -0.0000    0.0000    0.0000   -0.0000    0.0028    0.0000
       29 V      2pz       -0.0000    0.0001   -0.0000   -0.0000   -0.0000    0.0000    0.0000   -0.0000    0.0000   -0.0000
       30 V      3pz        0.0000   -0.0136   -0.0000    0.0000   -0.0098    0.0015    0.0000   -0.0000   -0.0000   -0.0000
       31 V      4pz        0.0000   -0.4655    0.0000   -0.0000   -0.0457   -0.0110   -0.0000   -0.0000   -0.0000    0.0000
       32 V      5pz       -0.0000    0.0686    0.0000    0.0000   -0.0625   -0.0081   -0.0000   -0.0000   -0.0000   -0.0000
       33 V      6pz       -0.0000    0.4248   -0.0000    0.0000   -0.0031   -0.0034   -0.0000    0.0000   -0.0000   -0.0000
       34 V      7pz       -0.0000    0.4439   -0.0000    0.0000    0.0726    0.0085    0.0000    0.0000    0.0000    0.0000
       35 V      8pz       -0.0000    0.5214   -0.0000    0.0000    0.1163    0.0158    0.0000    0.0000    0.0000    0.0000
       36 V      9pz       -0.0000    0.2371   -0.0000    0.0000    0.0634    0.0090    0.0000    0.0000    0.0000    0.0000
       37 V     10pz       -0.0000    0.0446   -0.0000    0.0000    0.0143    0.0020    0.0000    0.0000    0.0000    0.0000
       38 V      3d2-       0.0627    0.0000   -0.0000   -0.5149   -0.0000    0.0000   -0.0000   -0.0000    0.0254   -0.0000
       39 V      4d2-       0.1790    0.0000    0.0000    0.3030    0.0000    0.0000   -0.0000    0.0000   -0.0323    0.0000
       40 V      5d2-       0.2009    0.0000    0.0000    0.4197    0.0000    0.0000    0.0000    0.0000   -0.0641    0.0000
       41 V      6d2-       0.1219    0.0000    0.0000    0.3207    0.0000    0.0000    0.0000    0.0000   -0.0561    0.0000
       42 V      7d2-       0.1000    0.0000    0.0000    0.2767    0.0000    0.0000    0.0000    0.0000   -0.0512    0.0000
       43 V      8d2-       0.0523    0.0000    0.0000    0.1596    0.0000    0.0000    0.0000    0.0000   -0.0321    0.0000
       44 V      9d2-       0.0242    0.0000    0.0000    0.0745    0.0000    0.0000    0.0000    0.0000   -0.0159    0.0000
       45 V     10d2-       0.0044    0.0000    0.0000    0.0136    0.0000    0.0000    0.0000    0.0000   -0.0030    0.0000
       46 V      3d1-       0.2073    0.0000    0.0000    0.2927   -0.0000    0.0000   -0.0000   -0.0000    0.1019   -0.0000
       47 V      4d1-       0.3468    0.0000   -0.0000   -0.1828    0.0000    0.0000    0.0000    0.0000   -0.0035    0.0000
       48 V      5d1-       0.3860    0.0000   -0.0000   -0.2485    0.0000   -0.0000    0.0000    0.0000   -0.0373    0.0000
       49 V      6d1-       0.2341    0.0000   -0.0000   -0.1864    0.0000   -0.0000    0.0000    0.0000   -0.0440    0.0000
       50 V      7d1-       0.1938    0.0000   -0.0000   -0.1610    0.0000   -0.0000    0.0000    0.0000   -0.0410    0.0000
       51 V      8d1-       0.1026    0.0000   -0.0000   -0.0932    0.0000   -0.0000    0.0000    0.0000   -0.0266    0.0000
       52 V      9d1-       0.0478    0.0000   -0.0000   -0.0439    0.0000   -0.0000    0.0000    0.0000   -0.0129    0.0000
       53 V     10d1-       0.0087    0.0000   -0.0000   -0.0080    0.0000   -0.0000    0.0000    0.0000   -0.0024    0.0000
       54 V      3d0        0.0000    0.0550    0.0000    0.0000   -0.1297    0.0438    0.0000    0.0000    0.0000   -0.0000
       55 V      4d0        0.0000    0.0607   -0.0000    0.0000    0.0368   -0.0015   -0.0000    0.0000    0.0000   -0.0000
       56 V      5d0        0.0000    0.0584   -0.0000    0.0000    0.0997   -0.0159   -0.0000    0.0000    0.0000   -0.0000
       57 V      6d0        0.0000    0.0372   -0.0000    0.0000    0.0884   -0.0193   -0.0000    0.0000   -0.0000   -0.0000
       58 V      7d0        0.0000    0.0338   -0.0000    0.0000    0.0771   -0.0182   -0.0000    0.0000   -0.0000   -0.0000
       59 V      8d0        0.0000    0.0204   -0.0000    0.0000    0.0456   -0.0119   -0.0000    0.0000   -0.0000   -0.0000
       60 V      9d0        0.0000    0.0099   -0.0000    0.0000    0.0216   -0.0058   -0.0000    0.0000   -0.0000   -0.0000
       61 V     10d0        0.0000    0.0018   -0.0000    0.0000    0.0040   -0.0011   -0.0000    0.0000   -0.0000   -0.0000
       62 V      3d1+      -0.0000    0.0000   -0.2927    0.0000   -0.0000   -0.0000    0.0000   -0.1019   -0.0000    0.0034
       63 V      4d1+      -0.0000    0.0000    0.1828   -0.0000    0.0000    0.0000   -0.0000    0.0035    0.0000   -0.0343
       64 V      5d1+      -0.0000    0.0000    0.2485   -0.0000    0.0000    0.0000   -0.0000    0.0373    0.0000   -0.0508
       65 V      6d1+      -0.0000    0.0000    0.1864   -0.0000    0.0000    0.0000   -0.0000    0.0440    0.0000   -0.0394
       66 V      7d1+      -0.0000    0.0000    0.1610   -0.0000    0.0000    0.0000   -0.0000    0.0410    0.0000   -0.0355
       67 V      8d1+      -0.0000    0.0000    0.0932   -0.0000    0.0000    0.0000   -0.0000    0.0266    0.0000   -0.0219
       68 V      9d1+      -0.0000    0.0000    0.0439   -0.0000    0.0000    0.0000   -0.0000    0.0129    0.0000   -0.0109
       69 V     10d1+      -0.0000    0.0000    0.0080   -0.0000    0.0000    0.0000   -0.0000    0.0024    0.0000   -0.0021
       70 V      3d2+       0.0000   -0.0000   -0.5149    0.0000   -0.0000    0.0000    0.0000    0.0254    0.0000   -0.0075
       71 V      4d2+       0.0000   -0.0000    0.3030   -0.0000    0.0000   -0.0000    0.0000   -0.0323   -0.0000    0.0031
       72 V      5d2+       0.0000   -0.0000    0.4197   -0.0000    0.0000   -0.0000    0.0000   -0.0641   -0.0000    0.0068
       73 V      6d2+       0.0000   -0.0000    0.3207   -0.0000    0.0000   -0.0000    0.0000   -0.0561   -0.0000    0.0062
       74 V      7d2+       0.0000   -0.0000    0.2767   -0.0000    0.0000   -0.0000    0.0000   -0.0512   -0.0000    0.0056
       75 V      8d2+       0.0000   -0.0000    0.1596   -0.0000    0.0000   -0.0000    0.0000   -0.0321   -0.0000    0.0035
       76 V      9d2+       0.0000   -0.0000    0.0745   -0.0000    0.0000   -0.0000    0.0000   -0.0159   -0.0000    0.0017
       77 V     10d2+       0.0000   -0.0000    0.0136   -0.0000    0.0000   -0.0000    0.0000   -0.0030   -0.0000    0.0003
       78 V      4f3-      -0.0000   -0.0000    0.0000    0.0000   -0.0000   -0.0000    0.1262    0.0000    0.0000    0.0000
       79 V      5f3-      -0.0000   -0.0000    0.0000    0.0000   -0.0000   -0.0000    0.3798    0.0000    0.0000    0.0000
       80 V      6f3-      -0.0000   -0.0000    0.0000    0.0000   -0.0000   -0.0000    0.5086    0.0000    0.0000    0.0000
       81 V      7f3-      -0.0000   -0.0000    0.0000    0.0000   -0.0000   -0.0000    0.5481    0.0000    0.0000    0.0000
       82 V      8f3-      -0.0000    0.0000    0.0000    0.0000    0.0000   -0.0000    0.4081    0.0000    0.0000    0.0000
       83 V      9f3-      -0.0000    0.0000    0.0000    0.0000    0.0000   -0.0000    0.3377    0.0000    0.0000    0.0000
       84 V      4f2-       0.0207    0.0000   -0.0000   -0.0337   -0.0000   -0.0000   -0.0000   -0.0000    0.1292   -0.0000
       85 V      5f2-       0.0304    0.0000   -0.0000   -0.0070    0.0000   -0.0000   -0.0000   -0.0000    0.3708   -0.0000
       86 V      6f2-       0.0238    0.0000    0.0000    0.0200    0.0000   -0.0000   -0.0000   -0.0000    0.4930   -0.0000
       87 V      7f2-       0.0209    0.0000    0.0000    0.0222    0.0000   -0.0000   -0.0000   -0.0000    0.5336   -0.0000
       88 V      8f2-       0.0138    0.0000    0.0000    0.0172    0.0000   -0.0000   -0.0000   -0.0000    0.3980   -0.0000
       89 V      9f2-       0.0101    0.0000    0.0000    0.0147    0.0000   -0.0000   -0.0000   -0.0000    0.3297   -0.0000
       90 V      4f1-       0.0157    0.0000    0.0000    0.0102   -0.0000    0.0000   -0.0000    0.0000   -0.0154   -0.0000
       91 V      5f1-       0.0321    0.0000   -0.0000   -0.0036   -0.0000    0.0000   -0.0000    0.0000   -0.0524   -0.0000
       92 V      6f1-       0.0321    0.0000   -0.0000   -0.0158   -0.0000    0.0000   -0.0000    0.0000   -0.0727   -0.0000
       93 V      7f1-       0.0287    0.0000   -0.0000   -0.0183   -0.0000    0.0000   -0.0000    0.0000   -0.0795   -0.0000
       94 V      8f1-       0.0188    0.0000   -0.0000   -0.0139   -0.0000    0.0000   -0.0000    0.0000   -0.0599   -0.0000
       95 V      9f1-       0.0139    0.0000   -0.0000   -0.0114   -0.0000    0.0000   -0.0000    0.0000   -0.0500   -0.0000
       96 V      4f0       -0.0000    0.0075   -0.0000    0.0000   -0.0262   -0.0288   -0.0000   -0.0000   -0.0000    0.0000
       97 V      5f0       -0.0000    0.0166   -0.0000    0.0000   -0.0309   -0.0767   -0.0000   -0.0000   -0.0000    0.0000
       98 V      6f0        0.0000    0.0138   -0.0000    0.0000   -0.0052   -0.0981   -0.0000   -0.0000   -0.0000    0.0000
       99 V      7f0        0.0000    0.0094   -0.0000    0.0000    0.0049   -0.1053   -0.0000   -0.0000   -0.0000    0.0000
      100 V      8f0        0.0000    0.0052   -0.0000    0.0000    0.0036   -0.0785   -0.0000   -0.0000   -0.0000    0.0000
      101 V      9f0        0.0000    0.0034   -0.0000    0.0000    0.0022   -0.0649   -0.0000   -0.0000   -0.0000    0.0000
      102 V      4f1+      -0.0000    0.0000   -0.0102    0.0000   -0.0000   -0.0000   -0.0000    0.0154    0.0000    0.1203
      103 V      5f1+      -0.0000    0.0000    0.0036   -0.0000   -0.0000   -0.0000   -0.0000    0.0524    0.0000    0.3684
      104 V      6f1+      -0.0000    0.0000    0.0158   -0.0000    0.0000   -0.0000   -0.0000    0.0727    0.0000    0.4994
      105 V      7f1+      -0.0000    0.0000    0.0183   -0.0000    0.0000   -0.0000   -0.0000    0.0795    0.0000    0.5426
      106 V      8f1+      -0.0000    0.0000    0.0139   -0.0000    0.0000   -0.0000   -0.0000    0.0599    0.0000    0.4062
      107 V      9f1+      -0.0000    0.0000    0.0114   -0.0000    0.0000   -0.0000   -0.0000    0.0500    0.0000    0.3377
      108 V      4f2+       0.0000   -0.0000   -0.0337    0.0000   -0.0000   -0.0000   -0.0000    0.1292    0.0000   -0.0176
      109 V      5f2+       0.0000   -0.0000   -0.0070    0.0000   -0.0000   -0.0000   -0.0000    0.3708    0.0000   -0.0515
      110 V      6f2+       0.0000   -0.0000    0.0200   -0.0000   -0.0000   -0.0000   -0.0000    0.4930    0.0000   -0.0696
      111 V      7f2+       0.0000   -0.0000    0.0222   -0.0000    0.0000   -0.0000   -0.0000    0.5336    0.0000   -0.0759
      112 V      8f2+       0.0000   -0.0000    0.0172   -0.0000    0.0000   -0.0000   -0.0000    0.3980    0.0000   -0.0568
      113 V      9f2+       0.0000   -0.0000    0.0147   -0.0000    0.0000   -0.0000   -0.0000    0.3297    0.0000   -0.0472
      114 V      4f3+       0.0000   -0.0059    0.0000    0.0000   -0.0298    0.1238    0.0000   -0.0000    0.0000    0.0000
      115 V      5f3+       0.0000   -0.0098    0.0000    0.0000   -0.0348    0.3711    0.0000   -0.0000    0.0000    0.0000
      116 V      6f3+       0.0000   -0.0055    0.0000    0.0000   -0.0161    0.4973    0.0000   -0.0000    0.0000    0.0000
      117 V      7f3+       0.0000   -0.0031    0.0000    0.0000   -0.0111    0.5362    0.0000   -0.0000    0.0000    0.0000
      118 V      8f3+       0.0000   -0.0020    0.0000    0.0000   -0.0079    0.3992    0.0000   -0.0000    0.0000    0.0000
      119 V      9f3+       0.0000   -0.0015    0.0000    0.0000   -0.0065    0.3303    0.0000   -0.0000    0.0000    0.0000
      120 V      5g4-       0.0052    0.0000    0.0000    0.0017    0.0000    0.0000   -0.0000   -0.0000    0.0016   -0.0000
      121 V      6g4-       0.0075    0.0000    0.0000    0.0011    0.0000    0.0000    0.0000   -0.0000    0.0007   -0.0000
      122 V      7g4-       0.0033    0.0000   -0.0000   -0.0001    0.0000    0.0000    0.0000    0.0000   -0.0004   -0.0000
      123 V      8g4-       0.0010    0.0000   -0.0000   -0.0002   -0.0000    0.0000    0.0000    0.0000   -0.0000   -0.0000
      124 V      5g3-       0.0000   -0.0000   -0.0000   -0.0000    0.0000   -0.0000    0.0034   -0.0000    0.0000   -0.0000
      125 V      6g3-       0.0000   -0.0000    0.0000    0.0000   -0.0000   -0.0000    0.0081    0.0000    0.0000    0.0000
      126 V      7g3-       0.0000    0.0000    0.0000    0.0000    0.0000   -0.0000    0.0072    0.0000    0.0000    0.0000
      127 V      8g3-       0.0000   -0.0000    0.0000   -0.0000   -0.0000   -0.0000    0.0049    0.0000    0.0000    0.0000
      128 V      5g2-      -0.0017   -0.0000    0.0000    0.0023    0.0000   -0.0000    0.0000   -0.0000    0.0008   -0.0000
      129 V      6g2-      -0.0013   -0.0000    0.0000    0.0014    0.0000   -0.0000   -0.0000   -0.0000    0.0051   -0.0000
      130 V      7g2-       0.0000   -0.0000   -0.0000   -0.0001   -0.0000   -0.0000   -0.0000   -0.0000    0.0060   -0.0000
      131 V      8g2-       0.0001    0.0000   -0.0000   -0.0003    0.0000   -0.0000   -0.0000   -0.0000    0.0043   -0.0000
      132 V      5g1-       0.0026    0.0000   -0.0000   -0.0089    0.0000    0.0000    0.0000    0.0000   -0.0013   -0.0000
      133 V      6g1-       0.0048    0.0000   -0.0000   -0.0056    0.0000    0.0000    0.0000    0.0000   -0.0029   -0.0000
      134 V      7g1-       0.0020    0.0000    0.0000    0.0007    0.0000    0.0000    0.0000    0.0000   -0.0023   -0.0000
      135 V      8g1-       0.0002   -0.0000    0.0000    0.0007   -0.0000    0.0000   -0.0000    0.0000   -0.0011   -0.0000
      136 V      5g0       -0.0000    0.0056   -0.0000   -0.0000    0.0034   -0.0017   -0.0000   -0.0000   -0.0000    0.0000
      137 V      6g0       -0.0000    0.0117   -0.0000   -0.0000    0.0015   -0.0022   -0.0000   -0.0000   -0.0000   -0.0000
      138 V      7g0       -0.0000    0.0064   -0.0000   -0.0000   -0.0003   -0.0013   -0.0000   -0.0000   -0.0000   -0.0000
      139 V      8g0       -0.0000    0.0016    0.0000   -0.0000    0.0004   -0.0010   -0.0000   -0.0000   -0.0000   -0.0000
      140 V      5g1+      -0.0000    0.0000    0.0089   -0.0000    0.0000    0.0000   -0.0000    0.0013    0.0000    0.0011
      141 V      6g1+      -0.0000    0.0000    0.0056   -0.0000    0.0000   -0.0000   -0.0000    0.0029    0.0000    0.0036
      142 V      7g1+      -0.0000    0.0000   -0.0007    0.0000    0.0000   -0.0000   -0.0000    0.0023    0.0000    0.0042
      143 V      8g1+      -0.0000    0.0000   -0.0007    0.0000   -0.0000   -0.0000   -0.0000    0.0011    0.0000    0.0035
      144 V      5g2+      -0.0000    0.0000    0.0023   -0.0000   -0.0000    0.0000   -0.0000    0.0008    0.0000   -0.0010
      145 V      6g2+      -0.0000    0.0000    0.0014   -0.0000   -0.0000    0.0000   -0.0000    0.0051    0.0000   -0.0026
      146 V      7g2+       0.0000    0.0000   -0.0001    0.0000   -0.0000   -0.0000   -0.0000    0.0060    0.0000   -0.0022
      147 V      8g2+       0.0000    0.0000   -0.0003    0.0000   -0.0000   -0.0000   -0.0000    0.0043    0.0000   -0.0014
      148 V      5g3+      -0.0000    0.0039   -0.0000    0.0000    0.0069    0.0034    0.0000   -0.0000   -0.0000    0.0000
      149 V      6g3+      -0.0000    0.0072   -0.0000    0.0000    0.0077    0.0080    0.0000   -0.0000   -0.0000    0.0000
      150 V      7g3+      -0.0000    0.0034   -0.0000    0.0000    0.0006    0.0069    0.0000   -0.0000   -0.0000    0.0000
      151 V      8g3+      -0.0000    0.0007    0.0000    0.0000   -0.0014    0.0046    0.0000   -0.0000    0.0000    0.0000
      152 V      5g4+      -0.0000    0.0000   -0.0017    0.0000   -0.0000    0.0000    0.0000   -0.0016   -0.0000    0.0006
      153 V      6g4+      -0.0000    0.0000   -0.0011    0.0000   -0.0000    0.0000    0.0000   -0.0007   -0.0000    0.0010
      154 V      7g4+      -0.0000    0.0000    0.0001   -0.0000    0.0000    0.0000    0.0000    0.0004    0.0000    0.0008
      155 V      8g4+      -0.0000    0.0000    0.0002   -0.0000   -0.0000    0.0000    0.0000    0.0000    0.0000    0.0006
      156 V      6h5-      -0.0009   -0.0000    0.0000    0.0075    0.0000   -0.0000    0.0000    0.0000   -0.0004    0.0000
      157 V      7h5-      -0.0009   -0.0000    0.0000    0.0048   -0.0000   -0.0000    0.0000   -0.0000    0.0000    0.0000
      158 V      6h4-      -0.0032   -0.0000   -0.0000   -0.0027    0.0000   -0.0000    0.0000    0.0000   -0.0017    0.0000
[...]
         3   13       9.42323388E-02  1.21431804E-03  8.17164024E+06  1.23173980E-03  8.17164025E+06
         3   15       1.20240396E-01  5.78164312E+06  1.17095185E-03  1.65836593E+07  2.23653024E+07
         3   17       3.10832004E-02  1.17094990E-03  5.78162762E+06  2.66476348E-06  5.78162762E+06
         4    8       1.91118581E-03  1.39239974E+04  7.45279543E-07  9.90058900E-10  1.39239974E+04
         4   10       1.43408289E-01  9.37240952E+06  5.01660164E-04  7.53506361E-07  9.37240952E+06
         4   12       1.13975640E-01  8.17164818E+06  1.21431095E-03  1.71208846E+06  9.88373665E+06
         4   14       9.42323388E-02  1.21431804E-03  8.17164024E+06  1.23173980E-03  8.17164025E+06
         4   16       1.20240396E-01  5.78164312E+06  1.17095185E-03  1.65836593E+07  2.23653024E+07
         4   18       3.10832004E-02  1.17094990E-03  5.78162762E+06  2.66476348E-06  5.78162762E+06
         5    7       1.91118203E-03  7.45275580E-07  1.39239540E+04  5.98808191E-18  1.39239540E+04
         5    9       1.43408654E-01  5.01653271E-04  9.37242982E+06  1.13710880E-16  9.37242982E+06
         5   11       9.42320640E-02  1.21430765E-03  8.17161105E+06  1.23173676E-03  8.17161105E+06
         5   13       1.13975487E-01  8.17163676E+06  1.21429709E-03  1.71208659E+06  9.88372335E+06
         5   15       3.10832629E-02  1.17095070E-03  5.78163777E+06  2.66472735E-06  5.78163777E+06
         5   17       1.20240365E-01  5.78162586E+06  1.17095015E-03  1.65836664E+07  2.23652922E+07
         6    8       1.91118203E-03  7.45275580E-07  1.39239540E+04  5.98808191E-18  1.39239540E+04
         6   10       1.43408654E-01  5.01653271E-04  9.37242982E+06  1.13710880E-16  9.37242982E+06
         6   12       9.42320640E-02  1.21430765E-03  8.17161105E+06  1.23173676E-03  8.17161105E+06
         6   14       1.13975487E-01  8.17163676E+06  1.21429709E-03  1.71208659E+06  9.88372335E+06
         6   16       3.10832629E-02  1.17095070E-03  5.78163777E+06  2.66472735E-06  5.78163777E+06
         6   18       1.20240365E-01  5.78162586E+06  1.17095015E-03  1.65836664E+07  2.23652922E+07
         7    9       1.84009336E-01  2.43605029E-07  2.53712785E-16  5.33605378E+06  5.33605378E+06
         7   11       1.72178241E-02  7.52983428E+05  2.86504761E-04  4.02579782E-06  7.52983429E+05
         7   13       1.72177968E-02  2.86505995E-04  7.52982584E+05  1.29378858E-14  7.52982585E+05
         7   15       1.30110453E-01  1.55697801E+07  7.44548490E-04  7.95965987E-07  1.55697801E+07
         7   17       1.30110519E-01  7.44549113E-04  1.55697886E+07  1.07157071E-16  1.55697886E+07
         8   10       1.84009336E-01  2.43605029E-07  2.53712785E-16  5.33605378E+06  5.33605378E+06
         8   12       1.72178241E-02  7.52983428E+05  2.86504761E-04  4.02579782E-06  7.52983429E+05
         8   14       1.72177968E-02  2.86505995E-04  7.52982584E+05  1.29378858E-14  7.52982585E+05
         8   16       1.30110453E-01  1.55697801E+07  7.44548490E-04  7.95965987E-07  1.55697801E+07
         8   18       1.30110519E-01  7.44549113E-04  1.55697886E+07  1.07157071E-16  1.55697886E+07
         9   11       7.66660724E-05  1.15615280E+02  4.39900445E-08  2.48096151E-08  1.15615280E+02
         9   13       7.66644975E-05  4.39917796E-08  1.15613192E+02  3.42324391E-17  1.15613192E+02
         9   15       2.77455102E-01  8.55904767E+06  4.09295010E-04  6.04605200E-08  8.55904767E+06
         9   17       2.77455156E-01  4.09294669E-04  8.55904999E+06  2.06785680E-17  8.55904999E+06
        10   12       7.66660724E-05  1.15615280E+02  4.39900445E-08  2.48096151E-08  1.15615280E+02
        10   14       7.66644975E-05  4.39917796E-08  1.15613192E+02  3.42324391E-17  1.15613192E+02
        10   16       2.77455102E-01  8.55904767E+06  4.09295010E-04  6.04605200E-08  8.55904767E+06
        10   18       2.77455156E-01  4.09294669E-04  8.55904999E+06  2.06785680E-17  8.55904999E+06
        11   15       1.53644138E-03  1.48730963E+04  2.35787651E-06  1.38817878E+04  2.87548841E+04
        11   17       7.94659993E-04  2.35779994E-06  1.48722617E+04  9.69075719E-06  1.48722617E+04
        12   16       1.53644138E-03  1.48730963E+04  2.35787651E-06  1.38817878E+04  2.87548841E+04
        12   18       7.94659993E-04  2.35779994E-06  1.48722617E+04  9.69075719E-06  1.48722617E+04
        13   15       7.94684072E-04  2.35807370E-06  1.48727003E+04  9.69077170E-06  1.48727003E+04
        13   17       1.53641773E-03  1.48727059E+04  2.35756653E-06  1.38817181E+04  2.87544240E+04
        14   16       7.94684072E-04  2.35807370E-06  1.48727003E+04  9.69077170E-06  1.48727003E+04
        14   18       1.53641773E-03  1.48727059E+04  2.35756653E-06  1.38817181E+04  2.87544240E+04
     -----------------------------------------------------------------------------------------------
--

++ Velocity transition strengths (SO states):
   ------------------------------------------
    for osc. strength at least    1.0000000000000001E-005

      From   To        Osc. strength     Einstein coefficients Ax, Ay, Az (sec-1)    Total A (sec-1)
     -----------------------------------------------------------------------------------------------
         1    3       3.21543235E-01  4.78987715E+07  2.56377221E-03  4.80249360E-09  4.78987715E+07
         1    5       3.21543215E-01  2.56377243E-03  4.78987805E+07  1.03817774E-16  4.78987805E+07
         1    7       2.83104791E-01  1.39137059E-09  5.10461676E-17  6.28884519E+07  6.28884519E+07
         1    9       9.40319409E-03  2.21874974E-08  9.31999554E-16  3.87090647E+06  3.87090647E+06
         1   11       1.93729490E-04  8.96964415E+04  3.41291595E-05  4.05637573E-06  8.96964416E+04
         1   13       1.93731452E-04  3.41291073E-05  8.96973628E+04  5.23234407E-15  8.96973628E+04
         1   15       1.24712010E-04  8.32935790E+04  3.98316395E-06  1.54683775E-07  8.32935790E+04
         1   17       1.24712760E-04  3.98311489E-06  8.32940811E+04  9.27210190E-17  8.32940811E+04
         2    4       3.21543235E-01  4.78987715E+07  2.56377221E-03  4.80249360E-09  4.78987715E+07
         2    6       3.21543215E-01  2.56377243E-03  4.78987805E+07  1.03817774E-16  4.78987805E+07
         2    8       2.83104791E-01  1.39137059E-09  5.10461676E-17  6.28884519E+07  6.28884519E+07
         2   10       9.40319409E-03  2.21874974E-08  9.31999554E-16  3.87090647E+06  3.87090647E+06
         2   12       1.93729490E-04  8.96964415E+04  3.41291595E-05  4.05637573E-06  8.96964416E+04
         2   14       1.93731452E-04  3.41291073E-05  8.96973628E+04  5.23234407E-15  8.96973628E+04
         2   16       1.24712010E-04  8.32935790E+04  3.98316395E-06  1.54683775E-07  8.32935790E+04
         2   18       1.24712760E-04  3.98311489E-06  8.32940811E+04  9.27210190E-17  8.32940811E+04
         3    7       8.15431009E-05  5.94086595E+02  3.17984285E-08  2.67276644E-09  5.94086595E+02
         3    9       1.57541504E-01  1.02961177E+07  5.51101309E-04  6.19624073E-07  1.02961177E+07
         3   11       8.82547337E-02  6.33821606E+06  9.41862603E-04  1.31508232E+06  7.65329838E+06
         3   13       7.30896063E-02  9.41867641E-04  6.33820674E+06  9.46118640E-04  6.33820674E+06
         3   15       6.90875534E-02  3.64095259E+06  7.37398544E-04  9.20971524E+06  1.28506678E+07
         3   17       1.95743746E-02  7.37397744E-04  3.64094228E+06  1.47986169E-06  3.64094228E+06
         4    8       8.15431009E-05  5.94086595E+02  3.17984285E-08  2.67276644E-09  5.94086595E+02
         4   10       1.57541504E-01  1.02961177E+07  5.51101309E-04  6.19624073E-07  1.02961177E+07
         4   12       8.82547337E-02  6.33821606E+06  9.41862603E-04  1.31508232E+06  7.65329838E+06
         4   14       7.30896063E-02  9.41867641E-04  6.33820674E+06  9.46118640E-04  6.33820674E+06
         4   16       6.90875534E-02  3.64095259E+06  7.37398544E-04  9.20971524E+06  1.28506678E+07
         4   18       1.95743746E-02  7.37397744E-04  3.64094228E+06  1.47986169E-06  3.64094228E+06
         5    7       8.15420746E-05  3.17986259E-08  5.94078442E+02  6.41618783E-18  5.94078442E+02
         5    9       1.57541861E-01  5.51095088E-04  1.02961371E+07  2.18541994E-16  1.02961371E+07
         5   11       7.30893581E-02  9.41858637E-04  6.33818106E+06  9.46116904E-04  6.33818106E+06
         5   13       8.82545687E-02  6.33820326E+06  9.41848986E-04  1.31508079E+06  7.65328405E+06
         5   15       1.95744067E-02  7.37398915E-04  3.64094731E+06  1.47986615E-06  3.64094731E+06
         5   17       6.90875144E-02  3.64093978E+06  7.37397668E-04  9.20971832E+06  1.28506581E+07
         6    8       8.15420746E-05  3.17986259E-08  5.94078442E+02  6.41618783E-18  5.94078442E+02
         6   10       1.57541861E-01  5.51095088E-04  1.02961371E+07  2.18541994E-16  1.02961371E+07
         6   12       7.30893581E-02  9.41858637E-04  6.33818106E+06  9.46116904E-04  6.33818106E+06
         6   14       8.82545687E-02  6.33820326E+06  9.41848986E-04  1.31508079E+06  7.65328405E+06
         6   16       1.95744067E-02  7.37398915E-04  3.64094731E+06  1.47986615E-06  3.64094731E+06
         6   18       6.90875144E-02  3.64093978E+06  7.37397668E-04  9.20971832E+06  1.28506581E+07
         7    9       2.14094998E-01  1.36898082E-07  2.62527371E-16  6.20852412E+06  6.20852412E+06
         7   11       9.46803618E-03  4.14065047E+05  1.57548739E-04  5.40992066E-06  4.14065047E+05
         7   13       9.46801707E-03  1.57549581E-04  4.14064402E+05  1.19138735E-14  4.14064402E+05
         7   15       8.54570712E-02  1.02263300E+07  4.89024384E-04  3.09138733E-07  1.02263300E+07
         7   17       8.54570969E-02  4.89024448E-04  1.02263335E+07  6.94926813E-17  1.02263335E+07
         8   10       2.14094998E-01  1.36898082E-07  2.62527371E-16  6.20852412E+06  6.20852412E+06
         8   12       9.46803618E-03  4.14065047E+05  1.57548739E-04  5.40992066E-06  4.14065047E+05
         8   14       9.46801707E-03  1.57549581E-04  4.14064402E+05  1.19138735E-14  4.14064402E+05
         8   16       8.54570712E-02  1.02263300E+07  4.89024384E-04  3.09138733E-07  1.02263300E+07
         8   18       8.54570969E-02  4.89024448E-04  1.02263335E+07  6.94926813E-17  1.02263335E+07
         9   11       1.78880198E-03  2.69758909E+03  1.02641744E-06  1.57735329E-08  2.69758909E+03
         9   13       1.78879824E-03  1.02642762E-06  2.69759014E+03  1.01005036E-17  2.69759014E+03
         9   15       1.12474215E-01  3.46966233E+06  1.65921200E-04  2.51589950E-08  3.46966233E+06
         9   17       1.12474503E-01  1.65918758E-04  3.46967148E+06  1.52566660E-16  3.46967148E+06
        10   12       1.78880198E-03  2.69758909E+03  1.02641744E-06  1.57735329E-08  2.69758909E+03
        10   14       1.78879824E-03  1.02642762E-06  2.69759014E+03  1.01005036E-17  2.69759014E+03
        10   16       1.12474215E-01  3.46966233E+06  1.65921200E-04  2.51589950E-08  3.46966233E+06
        10   18       1.12474503E-01  1.65918758E-04  3.46967148E+06  1.52566660E-16  3.46967148E+06
        11   15       1.11326742E-01  1.71564700E+06  2.71988434E-04  3.67868018E+05  2.08351502E+06
        11   17       9.16704598E-02  2.71988136E-04  1.71564168E+06  2.56806128E-04  1.71564168E+06
        12   16       1.11326742E-01  1.71564700E+06  2.71988434E-04  3.67868018E+05  2.08351502E+06
        12   18       9.16704598E-02  2.71988136E-04  1.71564168E+06  2.56806128E-04  1.71564168E+06
        13   15       9.16706719E-02  2.71989963E-04  1.71564427E+06  2.56806084E-04  1.71564427E+06
        13   17       1.11326663E-01  1.71564455E+06  2.71986076E-04  3.67867729E+05  2.08351228E+06
        14   16       9.16706719E-02  2.71989963E-04  1.71564427E+06  2.56806084E-04  1.71564427E+06
        14   18       1.11326663E-01  1.71564455E+06  2.71986076E-04  3.67867729E+05  2.08351228E+06
     -----------------------------------------------------------------------------------------------
--

++ Length and velocity gauge comparison (SO states):

 --------------------------------------------------
 A comparison between the dipole oscillator strengths in 
 length and velocity gauge will be performed

 All dipole oscillator differences above the tolerance of   0.10000000000000001       will be printed 

 Due to basis set deficiency these oscillator may be problematic 

 The tolerance is defined as ABS(1-O_l/O_v) 
 O_l : dipole oscillator strength in length gauge
 O_p : dipole oscillator strength in velocity gauge
 --------------------------------------------------

  Problematic transitions have been found

      From   To       Difference (%) Osc. st. (len.) Osc. st. (vel.)
     ---------------------------------------------------------------
         1   11            24.959369  1.45375832E-04  1.93729490E-04
         1   13            24.959212  1.45377608E-04  1.93731452E-04
         1   15            91.355583  2.38643395E-04  1.24712010E-04
         1   17            91.355109  2.38644238E-04  1.24712760E-04
         2   12            24.959369  1.45375832E-04  1.93729490E-04
         2   14            24.959212  1.45377608E-04  1.93731452E-04
         2   16            91.355583  2.38643395E-04  1.24712010E-04
         2   18            91.355109  2.38644238E-04  1.24712760E-04
         3    7          2243.773767  1.91118581E-03  8.15431009E-05
         3   11            29.143939  1.13975640E-01  8.82547337E-02
         3   13            28.927140  9.42323388E-02  7.30896063E-02
         3   15            74.040606  1.20240396E-01  6.90875534E-02
         3   17            58.795369  3.10832004E-02  1.95743746E-02
         4    8          2243.773767  1.91118581E-03  8.15431009E-05
         4   12            29.143939  1.13975640E-01  8.82547337E-02
         4   14            28.927140  9.42323388E-02  7.30896063E-02
         4   16            74.040606  1.20240396E-01  6.90875534E-02
         4   18            58.795369  3.10832004E-02  1.95743746E-02
         5    7          2243.798639  1.91118203E-03  8.15420746E-05
         5   11            28.927201  9.42320640E-02  7.30893581E-02
         5   13            29.144007  1.13975487E-01  8.82545687E-02
         5   15            58.795428  3.10832629E-02  1.95744067E-02
         5   17            74.040659  1.20240365E-01  6.90875144E-02
         6    8          2243.798639  1.91118203E-03  8.15420746E-05
         6   12            28.927201  9.42320640E-02  7.30893581E-02
         6   14            29.144007  1.13975487E-01  8.82545687E-02
         6   16            58.795428  3.10832629E-02  1.95744067E-02
         6   18            74.040659  1.20240365E-01  6.90875144E-02
         7    9            14.052483  1.84009336E-01  2.14094998E-01
         7   11            81.852115  1.72178241E-02  9.46803618E-03
         7   13            81.852195  1.72177968E-02  9.46801707E-03
         7   15            52.252413  1.30110453E-01  8.54570712E-02
         7   17            52.252444  1.30110519E-01  8.54570969E-02
         8   10            14.052483  1.84009336E-01  2.14094998E-01
         8   12            81.852115  1.72178241E-02  9.46803618E-03
         8   14            81.852195  1.72177968E-02  9.46801707E-03
         8   16            52.252413  1.30110453E-01  8.54570712E-02
         8   18            52.252444  1.30110519E-01  8.54570969E-02
         9   11            95.714111  7.66660724E-05  1.78880198E-03
         9   13            95.714190  7.66644975E-05  1.78879824E-03
         9   15           146.683297  2.77455102E-01  1.12474215E-01
         9   17           146.682713  2.77455156E-01  1.12474503E-01
        10   12            95.714111  7.66660724E-05  1.78880198E-03
        10   14            95.714190  7.66644975E-05  1.78879824E-03
        10   16           146.683297  2.77455102E-01  1.12474215E-01
        10   18           146.682713  2.77455156E-01  1.12474503E-01
        11   15            98.619881  1.53644138E-03  1.11326742E-01
        11   17            99.133134  7.94659993E-04  9.16704598E-02
        12   16            98.619881  1.53644138E-03  1.11326742E-01
        12   18            99.133134  7.94659993E-04  9.16704598E-02
        13   15            99.133110  7.94684072E-04  9.16706719E-02
        13   17            98.619901  1.53641773E-03  1.11326663E-01
        14   16            99.133110  7.94684072E-04  9.16706719E-02
        14   18            98.619901  1.53641773E-03  1.11326663E-01
     ---------------------------------------------------------------

 Number of problematic transitions =                    54

--

 Electric-dipole - electric-octupole not included
++ I/O STATISTICS
 
  I. General I/O information
  - - - - - - - - - - - - - - - - - - - - - - - - - - - - - - - - - - - - - - - - - - -
  Unit  Name          Flsize      Write/Read            MBytes           Write/Read
                      (MBytes)       Calls              In/Out           Time, sec.
  - - - - - - - - - - - - - - - - - - - - - - - - - - - - - - - - - - - - - - - - - - -
   1  SCRATCH           0.00 .       9/      45 .      0.0/      0.0 .       0/       0
   2  ANNI              0.00 .       0/       0 .      0.0/      0.0 .       0/       0
   3  RUNFILE          14.79 .     322/   10085 .      2.3/     73.1 .       0/       0
   4  ONEINT            5.45 .       0/   23543 .      0.0/   3734.6 .       0/       0
   5  JOBIPH            6.30 .       0/      92 .      0.0/      0.8 .       0/       0
   6  ORDINT          473.53 .       1/    3789 .      0.0/    947.0 .       0/       0
  - - - - - - - - - - - - - - - - - - - - - - - - - - - - - - - - - - - - - - - - - - -
   *  TOTAL           500.08 .     332/   37554 .      2.3/   4755.5 .       0/       0
  - - - - - - - - - - - - - - - - - - - - - - - - - - - - - - - - - - - - - - - - - - -
 
  II. I/O Access Patterns
  - - - - - - - - - - - - - - - - - - - -
  Unit  Name               % of random
                         Write/Read calls
  - - - - - - - - - - - - - - - - - - - -
   1  SCRATCH             88.9/ 100.0
   2  ANNI                 0.0/   0.0
   3  RUNFILE             28.6/  10.8
   4  ONEINT               0.0/  16.4
   5  JOBIPH               0.0/  76.1
   6  ORDINT             100.0/   0.1
  - - - - - - - - - - - - - - - - - - - -
--
--- Stop Module: rassi at Fri Jan 10 02:26:37 2025 /rc=_RC_ALL_IS_WELL_ ---
*** files: xmldump
    saved to directory /home4/s4752295/Internship/Initial_simulations/Point_charge_model/1_electron/active_space_9_non_rel/V/varying_bond_length
--- Module rassi spent 3 seconds ---

.##################.
.# Happy landing! #.
.##################.

    Timing: Wall=59.58 User=42.95 System=10.21

###############################################################################
Hbrk Cluster
Job 14556687 for user s4752295
Finished at: Fri Jan 10 02:26:38 CET 2025

Job details:
============

Job ID                         : 14556687
Name                           : V_no_c_light
User                           : s4752295
Partition                      : regularmedium
Nodes                          : node101
Number of Nodes                : 1
Cores                          : 1
Number of Tasks                : 1
State                          : RUNNING  
Submit                         : 2025-01-10T02:25:33
Start                          : 2025-01-10T02:25:33
End                            : --
Reserved walltime              : 15:00:00
Used walltime                  : 00:01:05
Used CPU time                  : -- 
% User (Computation)           : --
% System (I/O)                 : --
Total memory reserved          : 25000M
Maximum memory used            : --

Acknowledgements:
=================

Please see this page for information about acknowledging Hbrk in your publications:

https://wiki.hpc.rug.nl/habrok/introduction/scientific_output

################################################################################
