   This run of MOLCAS is using the pymolcas driver

                             OPE
                             OPE          NMOL  CASOP  ENMOLC A   SO
                 OPE        NMOLC        AS  OP EN  MO LC     AS  OP
                OPENM       OL CA        SO  PE NM  OL CA     SOP EN
                OP EN      MO   LC       AS  OP ENMOL  CASO   PENMOL
                OP  EN     MO   LC       AS  OP EN     MO     LC ASO
               OP   E  NMOL  C  AS       OP  EN MO     LC     AS  OP
               OP  E   NMO   LC AS        OPEN  MO     LCASOP EN   M
               O  PEN   MO  LCA  SO
            OPE   NMO   L   CAS    OP
        OPENMOL  CASOP     ENMOL   CASOPE
     OPENMOLCA   SOPENMOLCASOPEN   MOLCASOPE
    OPENMOLCAS   OP           EN   MOL    CAS
    OPENMOLCAS       OP  ENM        O     LCA
    OPENMOLCAS    OPEN  MOLCASO     P  E  NMO
    OPENMOLCAS     OP               E  N  MOL
    OPENMOLCA   SO           PENM   O  L  CAS    OPEN    MO    LCAS
    OPENMOLCA   SOP           ENM   O  L  CAS   OP  EN  MOLC  AS   O
    OPENMOLCA   SOPE           NM      O  LCA   S      OP  EN MO
    OPENMOLC                AS         O  PEN   M      OL  CA  SOPE
    OPENMO        LCASOPE  NMOL        C  ASO   P      ENMOLC     AS
    OPE     NMO      LCA  SO     P     E   NM   OL  CA SO  PE N   MO
          OPENMOLCA            SOPE   NMO        LCAS  O    P  ENMO
     OPENMOLCASOPENMOLCASOPENMOLCASOPENMOLCA
        OPENMOLCASOPENMOLCASOPENMOLCASOPE
            OPENMOLCASOPENMOLCASOPENM
               OPENMOLCASOPENMOLCA        version: o91e1abe7de707b ?
                   OPENMOLCASO
                       OPE                tag:

 OpenMolcas is free software; you can redistribute it and/or modify it
 under the terms of the GNU Lesser General Public License version 2.1.
 OpenMolcas is distributed in the hope that it will be useful, but it
 is provided "as is" and without any express or implied warranties.
 For more details see the full text of the license in the file
 LICENSE or in <http://www.gnu.org/licenses/>.

                 Copyright (C) The OpenMolcas Authors
           For the author list and the recommended citation,
                   consult the file CONTRIBUTORS.md

           *************************************************
           * pymolcas version py2.10                       *
           *   build 3068ae8b88c9345ec6cfef6fef7f1169      *
           *   (after the EMIL interpreter by V. Veryazov) *
           *************************************************

configuration info
------------------
Host name: login1 (Linux)
C Compiler ID: GNU
C flags: -std=gnu99
Fortran Compiler ID: GNU
Fortran flags: -fno-aggressive-loop-optimizations -cpp -fdefault-integer-8 -fmax-stack-var-size=1048576
Definitions: _MOLCAS_;_I8_;_LINUX_;_MKL_
Parallel: OFF (GA=OFF)


   ---------------------------------------------------------------------------------------------------------------------------------------------
  |
  |           Project: vanadium_so_cf
  |    Submitted from: /home4/s4752295/Internship/Initial_simulations/Point_charge_model/1_electron/active_space_9_non_rel/V/varying_bond_length
  |      Scratch area: /tmp/vanadium_so_cf
  |   Save outputs to: /home4/s4752295/Internship/Initial_simulations/Point_charge_model/1_electron/active_space_9_non_rel/V/varying_bond_length
  |            Molcas: /home4/s4752295/Internship/Molcas/recomp_try/OpenMolcas-master/build
  |
  | Scratch area is empty
  |
  |    MOLCAS_DRIVER = /home4/s4752295/Internship/Molcas/bin/pymolcas
  |    MOLCAS_NPROCS = 1
  |    MOLCAS_SOURCE = /home4/s4752295/Internship/Molcas/recomp_try/OpenMolcas-master
  | MOLCAS_STRUCTURE = 0
  |
   ---------------------------------------------------------------------------------------------------------------------------------------------

++ ---------   Input file   ---------

&SEWARD
AMFi

CLIG
$R

Basis Set
V.ANO-rcc.Roos.21s15p10d6f4g2h.10s9p8d6f4g2h.
Spherical d
V            0.0        0.0     0.0
End of Basis

Xfield

4
0.000000,  0.0000,  1.134       -1.0
0.982073,  0.0000, -0.567       -1.0
-0.491036,  0.8505, -0.567      -1.0
-0.491036, -0.8505, -0.567      -1.0

End of input

&SCF
Occupied
9
Iterations
   50  100
End of Input

&RASSCF
LumOrb
Symmetry
1
Spin
2
Nactel
1 0 0
CIRoot
9 9 1
inactive
9
ras2
9
End of Input

>>> COPY vanadium_so_cf.JobIph $SLURM_SUBMIT_DIR/vanadium_so_cf.doublet.JobIph

>>> COPY $SLURM_SUBMIT_DIR/vanadium_so_cf.doublet.JobIph ./JOB002

&RASSI
NROFJobIph
1 All
SpinOrbit
End of Input

EOF

-- ----------------------------------

--- Start Module: seward at Fri Jan 10 02:38:53 2025 ---

()()()()()()()()()()()()()()()()()()()()()()()()()()()()()()()()()()()()()()()()()()()()()()()()()()

                                              &SEWARD

                                   only a single process is used
                       available to each process: 4.1 GB of memory, 1 thread?
                                            pid: 1102515
()()()()()()()()()()()()()()()()()()()()()()()()()()()()()()()()()()()()()()()()()()()()()()()()()()

 The speed of LIGHT in this CALCULATION =   137.03599917700001     
               SEWARD will generate:
                  Multipole Moment integrals up to order  2
                  Kinetic Energy integrals
                  Nuclear Attraction integrals (point charge)
                  One-Electron Hamiltonian integrals
                  Velocity integrals
                  Relativistic Douglas-Kroll-Hess integrals:
                    - Parametrization         : EXP
                    - DKH order of Hamiltonian: 2
                    - DKH order of Properties : 0
                         - multipole moment operators
                         - electric potential operators
                         - contact operators
                  External field from     4 point(s) added to the one-electron Hamiltonian
                  Orbital angular momentum around ( 0.0000  0.0000  0.0000 )
                  Velocity quadrupole around ( 0.0000  0.0000  0.0000 )
                  Atomic mean-field integrals
                  Two-Electron Repulsion integrals

                   Integrals are discarded if absolute value <: 0.10E-13
                   Integral cutoff threshold is set to       <: 0.10E-15

++    Symmetry information:
      ---------------------

                    Character Table for C1 

                             E  
                    a        1  x, y, xy, Rz, z, xz, Ry, yz, Rx, I
--


++    Basis set information:
      ----------------------


      Basis set label: V.ANO-RCC.ROOS.21S15P10D6F4G2H.10S9P8D6F4G2H......

      Electronic valence basis set:
      ------------------
      Associated Effective Charge  23.000000 au
      Associated Actual Charge     23.000000 au
      Nuclear Model: Point charge

      Shell  nPrim  nBasis  Cartesian Spherical Contaminant
         s      21      10        X                  
         p      15       9        X                  
         d      10       8                 X         
         f       6       6                 X         
         g       4       4                 X         
         h       2       2                 X         
--


++    Molecular structure info:
      -------------------------

                    ************************************************ 
                    **** Cartesian Coordinates / Bohr, Angstrom **** 
                    ************************************************ 

     Center  Label                x              y              z                     x              y              z
        1      V                0.000000       0.000000       0.000000              0.000000       0.000000       0.000000
--


++    Operator info:
      --------------


  Net charge from external field:   -4.0000000000000000     
--


            Nuclear Potential Energy              0.00000000 au

                    Nuclear-External Field Potential Energy     -81.12875108 au
                    External Field Potential Energy               3.29105025 au 


            Total Nuclear Potential Energy            -81.12875108 au


      Basis set specifications :
      Symmetry species         a  
      Basis functions          177

 Sorry, Molden does not know how to handle
 functions with angular momentum larger than g
Note: The following floating-point exceptions are signalling: IEEE_UNDERFLOW_FLAG IEEE_DENORMAL
--- Stop Module: seward at Fri Jan 10 02:39:01 2025 /rc=_RC_ALL_IS_WELL_ ---
*** files: vanadium_so_cf.GssOrb xmldump
    saved to directory /home4/s4752295/Internship/Initial_simulations/Point_charge_model/1_electron/active_space_9_non_rel/V/varying_bond_length
--- Module seward spent 7 seconds ---

*** symbolic link created: INPORB -> vanadium_so_cf.GssOrb
--- Start Module: scf at Fri Jan 10 02:39:01 2025 ---

()()()()()()()()()()()()()()()()()()()()()()()()()()()()()()()()()()()()()()()()()()()()()()()()()()

                                                &SCF

                                   only a single process is used
                       available to each process: 4.1 GB of memory, 1 thread?
                                            pid: 1102537
()()()()()()()()()()()()()()()()()()()()()()()()()()()()()()()()()()()()()()()()()()()()()()()()()()

++    Input section:
      --------------

      Header of the integral files:
      
       Integrals generated by seward 4.2.0  , Fri Jan 10 02:38:53 2025


      Cartesian coordinates in Angstrom:
      -----------------------------------------------------
      No.  Label        X            Y            Z        
      -----------------------------------------------------
       1   V          0.00000000   0.00000000   0.00000000
      -----------------------------------------------------
      Nuclear repulsion energy =  -81.12875108
--

++    Orbital specifications:
      -----------------------

      Symmetry species               1
                                     a
      Frozen orbitals                0
      Occupied orbitals              9
      Secondary orbitals           168
      Deleted orbitals               0
      Total number of orbitals     177
      Number of basis functions    177
--

      Molecular charge                           5.000

++    Optimization specifications:
      ----------------------------

      SCF Algorithm: Conventional
      Minimized density differences are used
      Number of density matrices in core                5
      Maximum number of NDDO SCF iterations            50
      Maximum number of HF SCF iterations             100
      Threshold for SCF energy change            0.10E-08
      Threshold for density matrix               0.10E-03
      Threshold for Fock matrix                  0.15E-03
      Threshold for linear dependence            0.10E-08
      Threshold at which DIIS is turned on       0.15E+00
      Threshold at which QNR/C2DIIS is turned on 0.75E-01
      Threshold for Norm(delta) (QNR/C2DIIS)     0.20E-04
      DIIS extrapolation of the SCF procedure
      All orbitals punched on: SCFORB
--

      Detected guessorb starting orbitals                                             


++ Convergence information
                                   SCF        iterations: Energy and convergence statistics

Iter     Tot. SCF        One-elec.       Two-elec.     Energy      Max Dij or  Max Fij      DNorm      TNorm      AccCon     Time
         Energy          Energy          Energy        Change      Delta Norm                                                in Sec.
   1  -961.514818980 -1169.865835516   289.479767612   0.00E+00    0.18E+00*   0.23E+00*    0.60E+01   0.22E+03   None         1.
   2  -961.979935604 -1170.571999279   289.720814752  -0.47E+00*   0.73E-01*   0.77E-01*    0.87E+00   0.22E+03   EDIIS        1.
   3  -962.004313797 -1170.335701487   289.460138767  -0.24E-01*   0.18E-01*   0.21E-01*    0.19E+00   0.22E+03   EDIIS        1.
   4  -962.007103965 -1170.365077764   289.486724876  -0.28E-02*   0.73E-02*   0.10E-01*    0.34E-01   0.22E+03   c2DIIS       1.
   5  -962.007479830 -1170.349572525   289.470843772  -0.38E-03*   0.21E-02*   0.21E-02*    0.25E-02   0.22E+03   QNRc2DIIS    1.
   6  -962.007508208 -1170.351738566   289.472981435  -0.28E-04*   0.12E-02*   0.90E-03*    0.21E-03   0.22E+03   QNRc2DIIS    1.
   7  -962.007512408 -1170.350030615   289.471269283  -0.42E-05*   0.51E-04*   0.94E-04     0.42E-04   0.22E+03   QNRc2DIIS    1.
   8  -962.007512427 -1170.350438534   289.471677183  -0.19E-07*   0.22E-05    0.13E-05     0.48E-04   0.22E+03   QNRc2DIIS    1.
   9  -962.007512427 -1170.350444880   289.471683529  -0.16E-10    0.25E-06    0.15E-06     0.72E-03   0.22E+03   QNRc2DIIS    1.

       Convergence after  9 Macro Iterations
--

 *****************************************************************************************************************************
 *                                                                                                                           *
 *                                             SCF/KS-DFT Program, Final results                                             *
 *                                                                                                                           *
 *                                                                                                                           *
 *                                                                                                                           *
 *                                                       Final Results                                                       *
 *                                                                                                                           *
 *****************************************************************************************************************************

::    Total SCF energy                               -962.0075124273
      One-electron energy                           -1170.3504448797
      Two-electron energy                             289.4716835290
      Nuclear repulsion energy                        -81.1287510766
      Kinetic energy (interpolated)                   965.9239558205
      Virial theorem                                    0.9959453916
      Total spin, S(S+1)                                0.0000000000
      Total spin, S                                     0.0000000000
      Max non-diagonal density matrix element           0.0000001949
      Max non-diagonal Fock matrix element              0.0000000754


      All orbitals with orbital energies smaller than  E(LUMO)+0.5 are printed

++    Molecular orbitals:
      -------------------

      Title: SCF orbitals

      Molecular orbitals for symmetry species 1: a  

          Orbital            1         2         3         4         5         6         7         8         9        10    
          Energy         -203.0043  -24.2475  -20.1649  -20.1649  -20.1499   -2.8895   -1.7597   -1.7597   -1.5630   -0.1701
          Occ. No.          2.0000    2.0000    2.0000    2.0000    2.0000    2.0000    2.0000    2.0000    2.0000    0.0000

        1 V      1s         1.0000   -0.0000    0.0000   -0.0000   -0.0000   -0.0000   -0.0000   -0.0000    0.0000   -0.0000
        2 V      2s         0.0000    1.0000    0.0000   -0.0000   -0.0054   -0.0031    0.0000    0.0000   -0.0010   -0.0002
        3 V      3s        -0.0000   -0.0033   -0.0000    0.0000    0.0009   -0.9921    0.0000    0.0000   -0.0976   -0.0022
        4 V      4s         0.0000    0.0004    0.0000   -0.0000   -0.0001   -0.0042   -0.0000    0.0000   -0.0014    0.9602
        5 V      5s        -0.0000   -0.0005   -0.0000    0.0000    0.0001    0.0050    0.0000   -0.0000    0.0000    0.2220
        6 V      6s         0.0000    0.0013    0.0000   -0.0000   -0.0003    0.0058   -0.0000   -0.0000    0.0057   -0.0445
        7 V      7s        -0.0000   -0.0006   -0.0000    0.0000    0.0001   -0.0144    0.0000   -0.0000   -0.0056   -0.0632
        8 V      8s         0.0000    0.0003    0.0000   -0.0000   -0.0001    0.0099    0.0000   -0.0000    0.0025   -0.0220
        9 V      9s        -0.0000   -0.0000   -0.0000   -0.0000    0.0000    0.0017   -0.0000   -0.0000    0.0008   -0.0188
       10 V     10s         0.0000   -0.0000    0.0000   -0.0000   -0.0000   -0.0029    0.0000   -0.0000   -0.0008   -0.0056
       11 V      2px       -0.0000    0.0000    1.0000    0.0000    0.0000   -0.0000    0.0031    0.0000   -0.0000    0.0000
       12 V      3px        0.0000   -0.0000   -0.0035   -0.0000   -0.0000    0.0000    0.9852    0.0000   -0.0000    0.0000
       13 V      4px       -0.0000   -0.0000    0.0006    0.0000    0.0000    0.0000    0.0179    0.0000    0.0000   -0.0000
       14 V      5px        0.0000    0.0000   -0.0015   -0.0000   -0.0000   -0.0000   -0.0073   -0.0000   -0.0000   -0.0000
       15 V      6px       -0.0000   -0.0000    0.0007    0.0000    0.0000    0.0000   -0.0138   -0.0000    0.0000   -0.0000
       16 V      7px        0.0000    0.0000   -0.0005   -0.0000   -0.0000   -0.0000    0.0156    0.0000   -0.0000   -0.0000
       17 V      8px       -0.0000   -0.0000    0.0001    0.0000    0.0000   -0.0000   -0.0006   -0.0000   -0.0000    0.0000
       18 V      9px        0.0000   -0.0000    0.0000    0.0000    0.0000    0.0000   -0.0039   -0.0000    0.0000    0.0000
       19 V     10px       -0.0000    0.0000   -0.0001   -0.0000   -0.0000    0.0000    0.0007    0.0000    0.0000    0.0000
       20 V      2py        0.0000    0.0000   -0.0000    1.0000   -0.0000    0.0000   -0.0000    0.0031    0.0000   -0.0000
       21 V      3py       -0.0000   -0.0000    0.0000   -0.0035    0.0000    0.0000   -0.0000    0.9852    0.0000   -0.0000
       22 V      4py        0.0000    0.0000   -0.0000    0.0006   -0.0000   -0.0000   -0.0000    0.0179   -0.0000   -0.0000
       23 V      5py       -0.0000   -0.0000    0.0000   -0.0015    0.0000    0.0000    0.0000   -0.0073    0.0000   -0.0000
       24 V      6py        0.0000    0.0000   -0.0000    0.0007   -0.0000   -0.0000    0.0000   -0.0138    0.0000   -0.0000
       25 V      7py       -0.0000   -0.0000    0.0000   -0.0005    0.0000   -0.0000   -0.0000    0.0156    0.0000   -0.0000
       26 V      8py        0.0000    0.0000   -0.0000    0.0001   -0.0000    0.0000    0.0000   -0.0006    0.0000   -0.0000
       27 V      9py       -0.0000   -0.0000   -0.0000    0.0000   -0.0000    0.0000    0.0000   -0.0039   -0.0000    0.0000
       28 V     10py        0.0000    0.0000    0.0000   -0.0001    0.0000   -0.0000   -0.0000    0.0007   -0.0000   -0.0000
       29 V      2pz        0.0000    0.0054   -0.0000    0.0000    1.0000    0.0004    0.0000    0.0000    0.0043   -0.0000
       30 V      3pz       -0.0000    0.0006    0.0000   -0.0000   -0.0044   -0.0940    0.0000   -0.0000    0.9864   -0.0028
       31 V      4pz        0.0000   -0.0001   -0.0000    0.0000    0.0008    0.0026    0.0000   -0.0000    0.0326    0.1395
       32 V      5pz       -0.0000    0.0003    0.0000   -0.0000   -0.0020   -0.0013   -0.0000    0.0000   -0.0118    0.0288
       33 V      6pz        0.0000   -0.0002   -0.0000    0.0000    0.0009   -0.0016    0.0000    0.0000   -0.0235    0.0231
       34 V      7pz       -0.0000    0.0001    0.0000   -0.0000   -0.0006    0.0020    0.0000    0.0000    0.0242    0.0033
       35 V      8pz        0.0000   -0.0001   -0.0000    0.0000    0.0001   -0.0003   -0.0000    0.0000   -0.0002   -0.0007
       36 V      9pz       -0.0000    0.0000   -0.0000   -0.0000    0.0000   -0.0004    0.0000   -0.0000   -0.0062   -0.0010
       37 V     10pz        0.0000   -0.0000    0.0000    0.0000   -0.0001    0.0002    0.0000   -0.0000    0.0010   -0.0002
       38 V      3d2-      -0.0000   -0.0000   -0.0000    0.0006   -0.0000    0.0000   -0.0000    0.0891    0.0000   -0.0000
       39 V      4d2-      -0.0000    0.0000    0.0000   -0.0004    0.0000    0.0000    0.0000   -0.0288   -0.0000   -0.0000
       40 V      5d2-       0.0000   -0.0000   -0.0000    0.0003   -0.0000    0.0000   -0.0000    0.0008   -0.0000   -0.0000
       41 V      6d2-      -0.0000    0.0000   -0.0000    0.0000    0.0000   -0.0000   -0.0000    0.0098    0.0000   -0.0000
       42 V      7d2-       0.0000   -0.0000    0.0000   -0.0002    0.0000    0.0000    0.0000   -0.0013   -0.0000   -0.0000
       43 V      8d2-      -0.0000   -0.0000   -0.0000    0.0001   -0.0000   -0.0000    0.0000   -0.0021   -0.0000   -0.0000
       44 V      9d2-       0.0000    0.0000    0.0000   -0.0000    0.0000    0.0000   -0.0000    0.0008   -0.0000   -0.0000
       45 V     10d2-      -0.0000   -0.0000   -0.0000    0.0000    0.0000   -0.0000   -0.0000    0.0005   -0.0000   -0.0000
       46 V      3d1-      -0.0000   -0.0000   -0.0000    0.0011   -0.0000    0.0000   -0.0000    0.1284    0.0000   -0.0000
       47 V      4d1-       0.0000    0.0000    0.0000   -0.0008    0.0000   -0.0000    0.0000   -0.0405   -0.0000   -0.0000
       48 V      5d1-      -0.0000   -0.0000   -0.0000    0.0006   -0.0000   -0.0000   -0.0000    0.0006    0.0000   -0.0000
       49 V      6d1-       0.0000    0.0000    0.0000   -0.0003    0.0000    0.0000   -0.0000    0.0132    0.0000   -0.0000
       50 V      7d1-      -0.0000   -0.0000    0.0000   -0.0000    0.0000   -0.0000    0.0000   -0.0015    0.0000   -0.0000
       51 V      8d1-       0.0000    0.0000   -0.0000    0.0001   -0.0000   -0.0000    0.0000   -0.0025   -0.0000   -0.0000
       52 V      9d1-      -0.0000    0.0000   -0.0000    0.0000   -0.0000   -0.0000   -0.0000    0.0009    0.0000    0.0000
       53 V     10d1-       0.0000    0.0000    0.0000   -0.0000   -0.0000    0.0000   -0.0000    0.0006    0.0000    0.0000
       54 V      3d0       -0.0000   -0.0005    0.0000   -0.0000   -0.0005    0.0412    0.0000    0.0000   -0.1032   -0.0085
       55 V      4d0        0.0000    0.0004   -0.0000    0.0000    0.0002   -0.0165   -0.0000   -0.0000    0.0330   -0.0229
       56 V      5d0       -0.0000   -0.0003    0.0000    0.0000   -0.0000    0.0019   -0.0000   -0.0000   -0.0007   -0.0043
       57 V      6d0        0.0000    0.0003    0.0000   -0.0000   -0.0004    0.0065    0.0000    0.0000   -0.0115   -0.0001
       58 V      7d0       -0.0000   -0.0001   -0.0000    0.0000    0.0005   -0.0020    0.0000   -0.0000    0.0017   -0.0007
       59 V      8d0        0.0000    0.0000    0.0000   -0.0000   -0.0003   -0.0016   -0.0000   -0.0000    0.0028   -0.0001
       60 V      9d0       -0.0000    0.0000   -0.0000    0.0000    0.0001    0.0007   -0.0000   -0.0000   -0.0013    0.0003
       61 V     10d0        0.0000   -0.0000    0.0000   -0.0000   -0.0001    0.0003    0.0000    0.0000   -0.0007    0.0001
       62 V      3d1+       0.0000   -0.0000    0.0011    0.0000    0.0000    0.0000    0.1284    0.0000   -0.0000    0.0000
       63 V      4d1+      -0.0000    0.0000   -0.0008   -0.0000   -0.0000   -0.0000   -0.0405   -0.0000   -0.0000    0.0000
       64 V      5d1+       0.0000   -0.0000    0.0006    0.0000    0.0000    0.0000    0.0006    0.0000    0.0000   -0.0000
       65 V      6d1+       0.0000    0.0000   -0.0003   -0.0000   -0.0000   -0.0000    0.0132    0.0000   -0.0000   -0.0000
       66 V      7d1+      -0.0000   -0.0000   -0.0000   -0.0000    0.0000   -0.0000   -0.0015   -0.0000   -0.0000   -0.0000
       67 V      8d1+       0.0000   -0.0000    0.0001    0.0000    0.0000    0.0000   -0.0025   -0.0000    0.0000   -0.0000
       68 V      9d1+      -0.0000    0.0000    0.0000    0.0000   -0.0000    0.0000    0.0009    0.0000    0.0000   -0.0000
       69 V     10d1+       0.0000   -0.0000   -0.0000   -0.0000    0.0000   -0.0000    0.0006    0.0000   -0.0000   -0.0000
       70 V      3d2+      -0.0000    0.0000   -0.0006   -0.0000   -0.0000   -0.0000   -0.0891   -0.0000   -0.0000   -0.0000
       71 V      4d2+       0.0000   -0.0000    0.0004    0.0000    0.0000    0.0000    0.0288    0.0000    0.0000    0.0000
       72 V      5d2+       0.0000    0.0000   -0.0003   -0.0000   -0.0000   -0.0000   -0.0008   -0.0000   -0.0000    0.0000
       73 V      6d2+      -0.0000   -0.0000   -0.0000   -0.0000    0.0000   -0.0000   -0.0098   -0.0000   -0.0000    0.0000
       74 V      7d2+       0.0000    0.0000    0.0002    0.0000    0.0000    0.0000    0.0013    0.0000    0.0000    0.0000
       75 V      8d2+      -0.0000    0.0000   -0.0001   -0.0000   -0.0000    0.0000    0.0021    0.0000    0.0000   -0.0000
       76 V      9d2+       0.0000   -0.0000    0.0000    0.0000    0.0000   -0.0000   -0.0008   -0.0000   -0.0000   -0.0000
       77 V     10d2+      -0.0000    0.0000   -0.0000   -0.0000   -0.0000   -0.0000   -0.0005   -0.0000   -0.0000   -0.0000
       78 V      4f3-       0.0000    0.0000   -0.0000    0.0000    0.0000    0.0000   -0.0000    0.0000   -0.0000    0.0000
       79 V      5f3-      -0.0000   -0.0000    0.0000   -0.0000   -0.0000   -0.0000    0.0000   -0.0000   -0.0000    0.0000
       80 V      6f3-       0.0000    0.0000   -0.0000    0.0000   -0.0000    0.0000    0.0000   -0.0000    0.0000    0.0000
       81 V      7f3-      -0.0000   -0.0000    0.0000   -0.0000    0.0000   -0.0000   -0.0000    0.0000   -0.0000   -0.0000
       82 V      8f3-       0.0000    0.0000   -0.0000    0.0000    0.0000    0.0000    0.0000   -0.0000   -0.0000    0.0000
       83 V      9f3-      -0.0000   -0.0000    0.0000   -0.0000    0.0000    0.0000   -0.0000   -0.0000   -0.0000   -0.0000
       84 V      4f2-       0.0000    0.0000    0.0000   -0.0003    0.0000   -0.0000    0.0000   -0.0181   -0.0000   -0.0000
       85 V      5f2-      -0.0000   -0.0000   -0.0000    0.0002   -0.0000    0.0000   -0.0000    0.0053    0.0000    0.0000
       86 V      6f2-       0.0000    0.0000    0.0000   -0.0002    0.0000   -0.0000   -0.0000    0.0019    0.0000   -0.0000
       87 V      7f2-       0.0000   -0.0000   -0.0000    0.0001   -0.0000   -0.0000    0.0000   -0.0032   -0.0000   -0.0000
       88 V      8f2-      -0.0000   -0.0000    0.0000   -0.0000   -0.0000    0.0000   -0.0000    0.0012    0.0000   -0.0000
       89 V      9f2-       0.0000    0.0000    0.0000   -0.0000    0.0000   -0.0000   -0.0000    0.0004    0.0000   -0.0000
       90 V      4f1-       0.0000    0.0000    0.0000   -0.0002    0.0000    0.0000    0.0000   -0.0140   -0.0000    0.0000
       91 V      5f1-      -0.0000   -0.0000   -0.0000    0.0002   -0.0000   -0.0000   -0.0000    0.0030    0.0000    0.0000
       92 V      6f1-       0.0000    0.0000    0.0000   -0.0002    0.0000    0.0000   -0.0000    0.0015    0.0000    0.0000
       93 V      7f1-      -0.0000   -0.0000   -0.0000    0.0001   -0.0000   -0.0000    0.0000   -0.0014    0.0000   -0.0000
       94 V      8f1-       0.0000    0.0000    0.0000   -0.0001    0.0000    0.0000   -0.0000    0.0003    0.0000   -0.0000
       95 V      9f1-      -0.0000   -0.0000   -0.0000    0.0000   -0.0000    0.0000   -0.0000    0.0001   -0.0000   -0.0000
       96 V      4f0        0.0000   -0.0008    0.0000   -0.0000   -0.0003    0.0499   -0.0000   -0.0000   -0.0150   -0.0083
       97 V      5f0       -0.0000    0.0007   -0.0000    0.0000    0.0003   -0.0166    0.0000    0.0000    0.0022   -0.0154
       98 V      6f0        0.0000   -0.0005    0.0000   -0.0000   -0.0002   -0.0031    0.0000    0.0000    0.0019   -0.0035
       99 V      7f0       -0.0000    0.0002   -0.0000    0.0000    0.0002    0.0073   -0.0000   -0.0000   -0.0012   -0.0008
      100 V      8f0        0.0000   -0.0001    0.0000   -0.0000   -0.0001   -0.0027   -0.0000    0.0000    0.0002   -0.0009
      101 V      9f0       -0.0000    0.0000   -0.0000    0.0000    0.0000   -0.0007    0.0000    0.0000    0.0001   -0.0002
      102 V      4f1+      -0.0000    0.0000   -0.0002   -0.0000   -0.0000   -0.0000   -0.0140   -0.0000    0.0000    0.0000
      103 V      5f1+       0.0000   -0.0000    0.0002    0.0000    0.0000    0.0000    0.0030    0.0000    0.0000    0.0000
      104 V      6f1+      -0.0000    0.0000   -0.0002   -0.0000   -0.0000    0.0000    0.0015    0.0000   -0.0000    0.0000
      105 V      7f1+       0.0000   -0.0000    0.0001    0.0000    0.0000   -0.0000   -0.0014   -0.0000   -0.0000    0.0000
      106 V      8f1+      -0.0000    0.0000   -0.0001   -0.0000   -0.0000    0.0000    0.0003    0.0000    0.0000    0.0000
      107 V      9f1+       0.0000   -0.0000    0.0000    0.0000    0.0000   -0.0000    0.0001    0.0000   -0.0000    0.0000
      108 V      4f2+       0.0000   -0.0000    0.0003    0.0000    0.0000    0.0000    0.0181    0.0000    0.0000   -0.0000
      109 V      5f2+      -0.0000    0.0000   -0.0002   -0.0000   -0.0000   -0.0000   -0.0053   -0.0000   -0.0000   -0.0000
      110 V      6f2+       0.0000   -0.0000    0.0002    0.0000    0.0000    0.0000   -0.0019   -0.0000    0.0000    0.0000
      111 V      7f2+      -0.0000    0.0000   -0.0001   -0.0000   -0.0000    0.0000    0.0032    0.0000    0.0000    0.0000
      112 V      8f2+       0.0000   -0.0000    0.0000    0.0000    0.0000   -0.0000   -0.0012   -0.0000   -0.0000   -0.0000
      113 V      9f2+      -0.0000    0.0000    0.0000    0.0000   -0.0000    0.0000   -0.0004   -0.0000    0.0000    0.0000
      114 V      4f3+       0.0000   -0.0006    0.0000    0.0000    0.0002    0.0318    0.0000   -0.0000    0.0254   -0.0053
      115 V      5f3+      -0.0000    0.0004   -0.0000   -0.0000   -0.0002   -0.0106   -0.0000    0.0000   -0.0064   -0.0090
      116 V      6f3+       0.0000   -0.0003    0.0000    0.0000    0.0001   -0.0019    0.0000    0.0000   -0.0028   -0.0017
      117 V      7f3+      -0.0000    0.0001   -0.0000   -0.0000   -0.0001    0.0046   -0.0000   -0.0000    0.0038   -0.0004
      118 V      8f3+       0.0000   -0.0000    0.0000    0.0000    0.0000   -0.0017   -0.0000    0.0000   -0.0013   -0.0005
      119 V      9f3+      -0.0000    0.0000   -0.0000    0.0000    0.0000   -0.0004    0.0000    0.0000   -0.0005   -0.0001
      120 V      5g4-       0.0000    0.0000    0.0000   -0.0003    0.0000   -0.0000    0.0000   -0.0166   -0.0000   -0.0000
      121 V      6g4-      -0.0000   -0.0000   -0.0000    0.0002   -0.0000    0.0000   -0.0000    0.0011    0.0000    0.0000
      122 V      7g4-       0.0000    0.0000    0.0000   -0.0002    0.0000   -0.0000   -0.0000    0.0026    0.0000   -0.0000
      123 V      8g4-      -0.0000    0.0000   -0.0000    0.0001   -0.0000    0.0000    0.0000   -0.0017   -0.0000   -0.0000
      124 V      5g3-      -0.0000   -0.0000    0.0000   -0.0000   -0.0000    0.0000    0.0000   -0.0000    0.0000   -0.0000
      125 V      6g3-       0.0000    0.0000   -0.0000    0.0000   -0.0000   -0.0000   -0.0000    0.0000   -0.0000    0.0000
      126 V      7g3-      -0.0000   -0.0000    0.0000   -0.0000    0.0000    0.0000   -0.0000    0.0000    0.0000   -0.0000
      127 V      8g3-       0.0000    0.0000   -0.0000    0.0000   -0.0000   -0.0000    0.0000   -0.0000   -0.0000    0.0000
      128 V      5g2-      -0.0000   -0.0000   -0.0000    0.0000   -0.0000    0.0000   -0.0000    0.0011    0.0000    0.0000
      129 V      6g2-       0.0000    0.0000    0.0000   -0.0000    0.0000    0.0000    0.0000   -0.0006   -0.0000   -0.0000
      130 V      7g2-      -0.0000   -0.0000   -0.0000    0.0000   -0.0000   -0.0000    0.0000   -0.0003   -0.0000    0.0000
      131 V      8g2-       0.0000    0.0000   -0.0000    0.0000    0.0000    0.0000   -0.0000    0.0006    0.0000   -0.0000
      132 V      5g1-       0.0000    0.0000    0.0000   -0.0004    0.0000   -0.0000    0.0000   -0.0211   -0.0000    0.0000
      133 V      6g1-       0.0000   -0.0000   -0.0000    0.0003   -0.0000   -0.0000   -0.0000    0.0012    0.0000    0.0000
      134 V      7g1-      -0.0000    0.0000    0.0000   -0.0002    0.0000    0.0000   -0.0000    0.0033    0.0000    0.0000
      135 V      8g1-       0.0000   -0.0000   -0.0000    0.0001   -0.0000   -0.0000    0.0000   -0.0020   -0.0000   -0.0000
      136 V      5g0        0.0000   -0.0000    0.0000   -0.0000   -0.0006    0.0035   -0.0000   -0.0000   -0.0359   -0.0001
      137 V      6g0       -0.0000    0.0000   -0.0000    0.0000    0.0004   -0.0006    0.0000   -0.0000    0.0025   -0.0011
      138 V      7g0       -0.0000   -0.0000    0.0000   -0.0000   -0.0003   -0.0005   -0.0000   -0.0000    0.0059   -0.0004
      139 V      8g0        0.0000    0.0000   -0.0000    0.0000    0.0001    0.0005   -0.0000   -0.0000   -0.0043    0.0000
      140 V      5g1+       0.0000   -0.0000   -0.0004   -0.0000   -0.0000    0.0000   -0.0211   -0.0000    0.0000   -0.0000
      141 V      6g1+      -0.0000   -0.0000    0.0003    0.0000    0.0000    0.0000    0.0012    0.0000    0.0000    0.0000
      142 V      7g1+       0.0000    0.0000   -0.0002   -0.0000   -0.0000   -0.0000    0.0033    0.0000   -0.0000    0.0000
      143 V      8g1+      -0.0000   -0.0000    0.0001    0.0000    0.0000    0.0000   -0.0020   -0.0000    0.0000    0.0000
      144 V      5g2+      -0.0000    0.0000   -0.0000   -0.0000   -0.0000   -0.0000   -0.0011   -0.0000   -0.0000    0.0000
      145 V      6g2+       0.0000   -0.0000    0.0000    0.0000    0.0000    0.0000    0.0006    0.0000    0.0000    0.0000
      146 V      7g2+      -0.0000    0.0000   -0.0000   -0.0000   -0.0000    0.0000    0.0003    0.0000    0.0000   -0.0000
      147 V      8g2+       0.0000   -0.0000   -0.0000   -0.0000    0.0000   -0.0000   -0.0006   -0.0000   -0.0000   -0.0000
      148 V      5g3+      -0.0000    0.0003   -0.0000   -0.0000   -0.0003   -0.0182   -0.0000    0.0000   -0.0241    0.0013
      149 V      6g3+       0.0000   -0.0002    0.0000    0.0000    0.0002    0.0037    0.0000    0.0000    0.0022    0.0030
      150 V      7g3+      -0.0000    0.0002   -0.0000   -0.0000   -0.0002    0.0027   -0.0000   -0.0000    0.0040    0.0002
      151 V      8g3+      -0.0000   -0.0001    0.0000    0.0000    0.0000   -0.0031    0.0000    0.0000   -0.0033   -0.0003
      152 V      5g4+       0.0000   -0.0000   -0.0003   -0.0000   -0.0000    0.0000   -0.0166   -0.0000    0.0000   -0.0000
      153 V      6g4+      -0.0000    0.0000    0.0002    0.0000    0.0000   -0.0000    0.0011    0.0000   -0.0000   -0.0000
      154 V      7g4+       0.0000   -0.0000   -0.0002   -0.0000   -0.0000   -0.0000    0.0026    0.0000   -0.0000    0.0000
      155 V      8g4+       0.0000    0.0000    0.0001    0.0000    0.0000    0.0000   -0.0017   -0.0000    0.0000    0.0000
      156 V      6h5-      -0.0000   -0.0000   -0.0000    0.0000   -0.0000    0.0000   -0.0000    0.0019   -0.0000   -0.0000
      157 V      7h5-       0.0000    0.0000    0.0000   -0.0000   -0.0000    0.0000    0.0000   -0.0007   -0.0000    0.0000
      158 V      6h4-      -0.0000   -0.0000   -0.0000    0.0002   -0.0000    0.0000   -0.0000    0.0105    0.0000    0.0000
      159 V      7h4-       0.0000    0.0000    0.0000   -0.0001    0.0000   -0.0000    0.0000   -0.0021   -0.0000   -0.0000
      160 V      6h3-      -0.0000   -0.0000    0.0000    0.0000   -0.0000    0.0000   -0.0000    0.0000   -0.0000   -0.0000
      161 V      7h3-       0.0000    0.0000   -0.0000   -0.0000   -0.0000    0.0000   -0.0000   -0.0000   -0.0000    0.0000
      162 V      6h2-      -0.0000   -0.0000   -0.0000    0.0001   -0.0000    0.0000   -0.0000    0.0032    0.0000    0.0000
      163 V      7h2-       0.0000    0.0000    0.0000   -0.0000    0.0000   -0.0000    0.0000   -0.0007   -0.0000   -0.0000
      164 V      6h1-       0.0000    0.0000   -0.0000    0.0001   -0.0000   -0.0000   -0.0000    0.0018    0.0000    0.0000
      165 V      7h1-      -0.0000   -0.0000    0.0000   -0.0000    0.0000    0.0000    0.0000   -0.0010   -0.0000   -0.0000
      166 V      6h0        0.0000   -0.0001    0.0000   -0.0000   -0.0001    0.0037    0.0000    0.0000   -0.0061    0.0000
      167 V      7h0       -0.0000    0.0000   -0.0000    0.0000    0.0001   -0.0012   -0.0000   -0.0000    0.0020   -0.0004
      168 V      6h1+      -0.0000   -0.0000    0.0001    0.0000    0.0000   -0.0000    0.0018    0.0000   -0.0000   -0.0000
      169 V      7h1+       0.0000    0.0000   -0.0000   -0.0000   -0.0000   -0.0000   -0.0010   -0.0000   -0.0000    0.0000
      170 V      6h2+       0.0000    0.0000   -0.0001   -0.0000    0.0000    0.0000   -0.0032   -0.0000    0.0000   -0.0000
      171 V      7h2+      -0.0000   -0.0000    0.0000    0.0000   -0.0000    0.0000    0.0007    0.0000   -0.0000    0.0000
      172 V      6h3+       0.0000   -0.0001    0.0000    0.0000    0.0002    0.0056    0.0000   -0.0000    0.0123   -0.0002
      173 V      7h3+      -0.0000    0.0000   -0.0000   -0.0000   -0.0001   -0.0018   -0.0000    0.0000   -0.0022   -0.0005
      174 V      6h4+      -0.0000    0.0000    0.0002    0.0000    0.0000   -0.0000    0.0105    0.0000   -0.0000    0.0000
      175 V      7h4+       0.0000   -0.0000   -0.0001   -0.0000   -0.0000    0.0000   -0.0021   -0.0000    0.0000    0.0000
      176 V      6h5+      -0.0000    0.0000   -0.0000   -0.0000   -0.0000   -0.0000   -0.0019   -0.0000   -0.0000    0.0000
      177 V      7h5+       0.0000   -0.0000    0.0000    0.0000    0.0000    0.0000    0.0007    0.0000    0.0000    0.0000

          Orbital           11        12        13        14        15        16        17        18        19        20    
          Energy           -0.1064   -0.1064   -0.1004   -0.0651   -0.0305   -0.0305   -0.0271   -0.0271   -0.0254   -0.0206
          Occ. No.          0.0000    0.0000    0.0000    0.0000    0.0000    0.0000    0.0000    0.0000    0.0000    0.0000

        1 V      1s        -0.0000    0.0000   -0.0000    0.0000   -0.0000    0.0000    0.0000   -0.0000   -0.0000   -0.0000
        2 V      2s         0.0000   -0.0000    0.0001    0.0002    0.0000   -0.0000    0.0000    0.0000    0.0001    0.0000
        3 V      3s         0.0000    0.0000    0.0033    0.0028    0.0000   -0.0000    0.0000    0.0000    0.0037    0.0000
        4 V      4s         0.0000    0.0000   -0.1160   -0.1290   -0.0000   -0.0000    0.0000    0.0000    0.0079   -0.0000
        5 V      5s         0.0000    0.0000   -0.0779    0.7808    0.0000   -0.0000   -0.0000   -0.0000    0.0095    0.0000
        6 V      6s         0.0000    0.0000   -0.0098    0.3888    0.0000   -0.0000   -0.0000   -0.0000    0.0022    0.0000
        7 V      7s         0.0000   -0.0000   -0.0025    0.3961    0.0000   -0.0000   -0.0000   -0.0000    0.0038    0.0000
        8 V      8s        -0.0000   -0.0000   -0.0002    0.1669    0.0000   -0.0000   -0.0000   -0.0000    0.0020    0.0000
        9 V      9s        -0.0000   -0.0000    0.0011    0.1497    0.0000   -0.0000   -0.0000   -0.0000    0.0025    0.0000
       10 V     10s        -0.0000   -0.0000    0.0006    0.0434    0.0000   -0.0000   -0.0000   -0.0000    0.0009    0.0000
       11 V      2px       -0.0002   -0.0000    0.0000   -0.0000   -0.0000    0.0000   -0.0002   -0.0000    0.0000    0.0000
       12 V      3px       -0.0073   -0.0000    0.0000   -0.0000   -0.0000    0.0034   -0.0180   -0.0000    0.0000   -0.0000
       13 V      4px        0.8192    0.0000   -0.0000    0.0000   -0.0000    0.0310    0.1862    0.0000    0.0000   -0.0000
       14 V      5px        0.3514    0.0000   -0.0000   -0.0000    0.0000   -0.0185   -0.0706   -0.0000   -0.0000    0.0000
       15 V      6px        0.4086    0.0000   -0.0000   -0.0000    0.0000   -0.0625   -0.2729   -0.0000   -0.0000    0.0000
       16 V      7px        0.1489    0.0000   -0.0000   -0.0000    0.0000   -0.0544   -0.2540   -0.0000   -0.0000    0.0000
       17 V      8px        0.1007    0.0000   -0.0000   -0.0000    0.0000   -0.0607   -0.2859   -0.0000   -0.0000    0.0000
       18 V      9px        0.0300    0.0000   -0.0000   -0.0000    0.0000   -0.0269   -0.1269   -0.0000   -0.0000    0.0000
       19 V     10px        0.0028    0.0000   -0.0000   -0.0000    0.0000   -0.0049   -0.0234   -0.0000   -0.0000    0.0000
       20 V      2py        0.0000   -0.0002    0.0000   -0.0000   -0.0000   -0.0000    0.0000   -0.0002    0.0000    0.0001
       21 V      3py        0.0000   -0.0073   -0.0000    0.0000   -0.0034   -0.0000    0.0000   -0.0180    0.0000   -0.0028
       22 V      4py       -0.0000    0.8192    0.0000    0.0000   -0.0310   -0.0000   -0.0000    0.1862    0.0000   -0.3965
       23 V      5py       -0.0000    0.3514    0.0000   -0.0000    0.0185    0.0000    0.0000   -0.0706    0.0000    0.0616
       24 V      6py       -0.0000    0.4086    0.0000   -0.0000    0.0625    0.0000    0.0000   -0.2729    0.0000    0.3853
       25 V      7py       -0.0000    0.1489    0.0000   -0.0000    0.0544    0.0000    0.0000   -0.2540   -0.0000    0.3919
       26 V      8py       -0.0000    0.1007    0.0000   -0.0000    0.0607    0.0000    0.0000   -0.2859   -0.0000    0.4549
       27 V      9py       -0.0000    0.0300   -0.0000   -0.0000    0.0269    0.0000    0.0000   -0.1269   -0.0000    0.2057
       28 V     10py       -0.0000    0.0028   -0.0000   -0.0000    0.0049    0.0000    0.0000   -0.0234   -0.0000    0.0385
       29 V      2pz       -0.0000   -0.0000   -0.0003    0.0000   -0.0000    0.0000    0.0000    0.0000   -0.0000    0.0000
       30 V      3pz       -0.0000   -0.0000   -0.0118    0.0016   -0.0000    0.0000    0.0000    0.0000    0.0079    0.0000
       31 V      4pz        0.0000    0.0000    0.7762   -0.0164    0.0000   -0.0000   -0.0000    0.0000    0.1031   -0.0000
       32 V      5pz        0.0000    0.0000    0.3647    0.0356   -0.0000    0.0000    0.0000   -0.0000   -0.0403    0.0000
       33 V      6pz        0.0000    0.0000    0.4411    0.0747   -0.0000    0.0000    0.0000   -0.0000   -0.1675    0.0000
       34 V      7pz        0.0000    0.0000    0.1703    0.0505   -0.0000    0.0000    0.0000   -0.0000   -0.1564    0.0000
       35 V      8pz        0.0000    0.0000    0.1221    0.0501   -0.0000    0.0000    0.0000   -0.0000   -0.1783    0.0000
       36 V      9pz        0.0000    0.0000    0.0386    0.0203   -0.0000    0.0000    0.0000   -0.0000   -0.0801    0.0000
       37 V     10pz        0.0000   -0.0000    0.0041    0.0033   -0.0000    0.0000    0.0000   -0.0000   -0.0148    0.0000
       38 V      3d2-       0.0000   -0.0094   -0.0000    0.0000    0.3088    0.0000   -0.0000    0.0962    0.0000    0.0337
       39 V      4d2-      -0.0000    0.0102   -0.0000   -0.0000    0.5534    0.0000   -0.0000    0.2377   -0.0000    0.0655
       40 V      5d2-      -0.0000    0.0029   -0.0000   -0.0000    0.5195    0.0000   -0.0000    0.2271   -0.0000    0.0733
       41 V      6d2-      -0.0000    0.0008   -0.0000   -0.0000    0.2954    0.0000   -0.0000    0.1306   -0.0000    0.0438
       42 V      7d2-      -0.0000    0.0011   -0.0000   -0.0000    0.2394    0.0000   -0.0000    0.1071   -0.0000    0.0358
       43 V      8d2-      -0.0000    0.0005   -0.0000   -0.0000    0.1211    0.0000   -0.0000    0.0548   -0.0000    0.0187
       44 V      9d2-       0.0000   -0.0000   -0.0000   -0.0000    0.0543    0.0000   -0.0000    0.0245   -0.0000    0.0087
       45 V     10d2-       0.0000   -0.0000   -0.0000    0.0000    0.0097    0.0000   -0.0000    0.0043   -0.0000    0.0016
       46 V      3d1-      -0.0000    0.0140   -0.0000    0.0000   -0.1398   -0.0000   -0.0000    0.2059   -0.0000    0.1464
       47 V      4d1-      -0.0000    0.0562    0.0000    0.0000   -0.2361   -0.0000   -0.0000    0.4653   -0.0000    0.2939
       48 V      5d1-      -0.0000    0.0357   -0.0000   -0.0000   -0.2185   -0.0000   -0.0000    0.4409   -0.0000    0.3096
       49 V      6d1-      -0.0000    0.0156   -0.0000   -0.0000   -0.1239   -0.0000   -0.0000    0.2517   -0.0000    0.1870
       50 V      7d1-      -0.0000    0.0123   -0.0000   -0.0000   -0.1000   -0.0000   -0.0000    0.2052   -0.0000    0.1545
       51 V      8d1-      -0.0000    0.0051   -0.0000   -0.0000   -0.0504   -0.0000   -0.0000    0.1042   -0.0000    0.0815
       52 V      9d1-      -0.0000    0.0019   -0.0000   -0.0000   -0.0226   -0.0000   -0.0000    0.0465   -0.0000    0.0375
       53 V     10d1-      -0.0000    0.0003    0.0000   -0.0000   -0.0040   -0.0000   -0.0000    0.0083   -0.0000    0.0068
       54 V      3d0        0.0000    0.0000    0.0363    0.0110   -0.0000   -0.0000    0.0000    0.0000    0.2673    0.0000
       55 V      4d0        0.0000    0.0000    0.0399    0.0230   -0.0000   -0.0000    0.0000    0.0000    0.5687    0.0000
       56 V      5d0        0.0000    0.0000    0.0359    0.0105   -0.0000   -0.0000    0.0000    0.0000    0.5545    0.0000
       57 V      6d0        0.0000    0.0000    0.0175    0.0041   -0.0000   -0.0000    0.0000    0.0000    0.3206    0.0000
       58 V      7d0        0.0000    0.0000    0.0127    0.0036   -0.0000   -0.0000    0.0000    0.0000    0.2617    0.0000
       59 V      8d0        0.0000    0.0000    0.0054    0.0015   -0.0000   -0.0000    0.0000    0.0000    0.1339    0.0000
       60 V      9d0        0.0000    0.0000    0.0025    0.0005   -0.0000   -0.0000    0.0000    0.0000    0.0603    0.0000
       61 V     10d0        0.0000    0.0000    0.0004    0.0001   -0.0000   -0.0000    0.0000    0.0000    0.0108    0.0000
       62 V      3d1+       0.0140    0.0000   -0.0000   -0.0000   -0.0000    0.1398    0.2059    0.0000   -0.0000    0.0000
       63 V      4d1+       0.0562    0.0000   -0.0000   -0.0000   -0.0000    0.2361    0.4653    0.0000   -0.0000    0.0000
       64 V      5d1+       0.0357    0.0000   -0.0000   -0.0000   -0.0000    0.2185    0.4409    0.0000   -0.0000    0.0000
       65 V      6d1+       0.0156    0.0000   -0.0000   -0.0000   -0.0000    0.1239    0.2517    0.0000   -0.0000    0.0000
       66 V      7d1+       0.0123    0.0000   -0.0000   -0.0000   -0.0000    0.1000    0.2052    0.0000   -0.0000    0.0000
       67 V      8d1+       0.0051    0.0000   -0.0000   -0.0000   -0.0000    0.0504    0.1042    0.0000   -0.0000    0.0000
       68 V      9d1+       0.0019    0.0000   -0.0000   -0.0000   -0.0000    0.0226    0.0465    0.0000   -0.0000    0.0000
       69 V     10d1+       0.0003    0.0000   -0.0000   -0.0000   -0.0000    0.0040    0.0083    0.0000   -0.0000    0.0000
       70 V      3d2+       0.0094    0.0000    0.0000    0.0000   -0.0000    0.3088   -0.0962   -0.0000    0.0000   -0.0000
       71 V      4d2+      -0.0102   -0.0000    0.0000   -0.0000   -0.0000    0.5534   -0.2377   -0.0000    0.0000   -0.0000
       72 V      5d2+      -0.0029   -0.0000    0.0000   -0.0000   -0.0000    0.5195   -0.2271   -0.0000    0.0000   -0.0000
       73 V      6d2+      -0.0008   -0.0000    0.0000   -0.0000   -0.0000    0.2954   -0.1306   -0.0000    0.0000   -0.0000
       74 V      7d2+      -0.0011   -0.0000    0.0000   -0.0000   -0.0000    0.2394   -0.1071   -0.0000    0.0000   -0.0000
       75 V      8d2+      -0.0005   -0.0000    0.0000    0.0000   -0.0000    0.1211   -0.0548   -0.0000    0.0000   -0.0000
       76 V      9d2+       0.0000    0.0000    0.0000    0.0000   -0.0000    0.0543   -0.0245   -0.0000    0.0000   -0.0000
       77 V     10d2+       0.0000    0.0000   -0.0000    0.0000   -0.0000    0.0097   -0.0043   -0.0000    0.0000   -0.0000
       78 V      4f3-      -0.0000    0.0000   -0.0000    0.0000   -0.0000   -0.0000    0.0000   -0.0000   -0.0000   -0.0000
       79 V      5f3-      -0.0000    0.0000    0.0000   -0.0000   -0.0000   -0.0000    0.0000   -0.0000   -0.0000   -0.0000
       80 V      6f3-      -0.0000    0.0000   -0.0000   -0.0000   -0.0000   -0.0000    0.0000   -0.0000   -0.0000   -0.0000
       81 V      7f3-      -0.0000    0.0000   -0.0000   -0.0000   -0.0000   -0.0000    0.0000   -0.0000   -0.0000   -0.0000
       82 V      8f3-       0.0000    0.0000   -0.0000    0.0000   -0.0000   -0.0000    0.0000   -0.0000   -0.0000   -0.0000
       83 V      9f3-       0.0000    0.0000   -0.0000    0.0000   -0.0000   -0.0000    0.0000   -0.0000   -0.0000   -0.0000
       84 V      4f2-       0.0000   -0.0007   -0.0000    0.0000    0.0162    0.0000   -0.0000    0.0102   -0.0000    0.0061
       85 V      5f2-       0.0000   -0.0022   -0.0000   -0.0000    0.0220    0.0000   -0.0000    0.0110   -0.0000    0.0079
       86 V      6f2-       0.0000   -0.0005   -0.0000   -0.0000    0.0204    0.0000   -0.0000    0.0105   -0.0000    0.0054
       87 V      7f2-       0.0000   -0.0000   -0.0000   -0.0000    0.0186    0.0000   -0.0000    0.0101   -0.0000    0.0047
       88 V      8f2-       0.0000   -0.0002   -0.0000   -0.0000    0.0118    0.0000   -0.0000    0.0061   -0.0000    0.0030
       89 V      9f2-       0.0000   -0.0001   -0.0000   -0.0000    0.0087    0.0000   -0.0000    0.0045   -0.0000    0.0021
       90 V      4f1-       0.0000   -0.0017   -0.0000   -0.0000   -0.0059   -0.0000   -0.0000    0.0057   -0.0000    0.0076
       91 V      5f1-       0.0000   -0.0051   -0.0000   -0.0000   -0.0095   -0.0000   -0.0000    0.0118   -0.0000    0.0172
       92 V      6f1-       0.0000   -0.0035   -0.0000   -0.0000   -0.0096   -0.0000   -0.0000    0.0147   -0.0000    0.0167
       93 V      7f1-       0.0000   -0.0020   -0.0000   -0.0000   -0.0089   -0.0000   -0.0000    0.0148   -0.0000    0.0145
       94 V      8f1-       0.0000   -0.0011   -0.0000   -0.0000   -0.0058   -0.0000   -0.0000    0.0101   -0.0000    0.0093
       95 V      9f1-       0.0000   -0.0006   -0.0000   -0.0000   -0.0044   -0.0000   -0.0000    0.0078   -0.0000    0.0068
       96 V      4f0       -0.0000   -0.0000   -0.0023    0.0052   -0.0000    0.0000    0.0000    0.0000    0.0014    0.0000
       97 V      5f0       -0.0000   -0.0000   -0.0052    0.0092   -0.0000    0.0000    0.0000    0.0000    0.0140    0.0000
       98 V      6f0       -0.0000   -0.0000   -0.0040    0.0021   -0.0000    0.0000    0.0000    0.0000    0.0190    0.0000
       99 V      7f0       -0.0000   -0.0000   -0.0026    0.0005   -0.0000    0.0000    0.0000    0.0000    0.0183    0.0000
      100 V      8f0       -0.0000   -0.0000   -0.0014    0.0005   -0.0000    0.0000    0.0000    0.0000    0.0129    0.0000
      101 V      9f0       -0.0000   -0.0000   -0.0008    0.0001   -0.0000    0.0000    0.0000    0.0000    0.0100    0.0000
      102 V      4f1+      -0.0017   -0.0000    0.0000   -0.0000   -0.0000    0.0059    0.0057    0.0000   -0.0000    0.0000
      103 V      5f1+      -0.0051   -0.0000    0.0000   -0.0000   -0.0000    0.0095    0.0118    0.0000   -0.0000    0.0000
      104 V      6f1+      -0.0035   -0.0000    0.0000   -0.0000   -0.0000    0.0096    0.0147    0.0000   -0.0000    0.0000
      105 V      7f1+      -0.0020   -0.0000    0.0000   -0.0000   -0.0000    0.0089    0.0148    0.0000   -0.0000    0.0000
      106 V      8f1+      -0.0011   -0.0000    0.0000   -0.0000   -0.0000    0.0058    0.0101    0.0000   -0.0000    0.0000
      107 V      9f1+      -0.0006   -0.0000    0.0000   -0.0000   -0.0000    0.0044    0.0078    0.0000   -0.0000    0.0000
      108 V      4f2+       0.0007    0.0000    0.0000    0.0000   -0.0000    0.0162   -0.0102   -0.0000    0.0000   -0.0000
      109 V      5f2+       0.0022    0.0000    0.0000    0.0000   -0.0000    0.0220   -0.0110   -0.0000    0.0000   -0.0000
      110 V      6f2+       0.0005    0.0000    0.0000   -0.0000   -0.0000    0.0204   -0.0105   -0.0000    0.0000   -0.0000
      111 V      7f2+       0.0000    0.0000    0.0000    0.0000   -0.0000    0.0186   -0.0101   -0.0000    0.0000   -0.0000
      112 V      8f2+       0.0002    0.0000    0.0000    0.0000   -0.0000    0.0118   -0.0061   -0.0000    0.0000   -0.0000
      113 V      9f2+       0.0001    0.0000    0.0000   -0.0000   -0.0000    0.0087   -0.0045   -0.0000    0.0000   -0.0000
      114 V      4f3+      -0.0000   -0.0000    0.0007    0.0035    0.0000   -0.0000    0.0000    0.0000    0.0050    0.0000
      115 V      5f3+       0.0000    0.0000    0.0032    0.0055    0.0000   -0.0000    0.0000    0.0000    0.0052    0.0000
      116 V      6f3+       0.0000    0.0000    0.0011    0.0011    0.0000   -0.0000    0.0000    0.0000    0.0033    0.0000
      117 V      7f3+       0.0000    0.0000    0.0004    0.0002    0.0000   -0.0000    0.0000    0.0000    0.0028    0.0000
      118 V      8f3+       0.0000    0.0000    0.0004    0.0002    0.0000   -0.0000    0.0000    0.0000    0.0016    0.0000
      119 V      9f3+       0.0000    0.0000    0.0002    0.0000    0.0000   -0.0000    0.0000    0.0000    0.0011    0.0000
      120 V      5g4-       0.0000   -0.0002   -0.0000   -0.0000   -0.0002   -0.0000   -0.0000    0.0014   -0.0000    0.0014
      121 V      6g4-       0.0000   -0.0023   -0.0000   -0.0000   -0.0000   -0.0000    0.0000   -0.0006   -0.0000    0.0027
      122 V      7g4-       0.0000   -0.0011   -0.0000    0.0000   -0.0000   -0.0000    0.0000   -0.0005   -0.0000    0.0011
      123 V      8g4-       0.0000   -0.0003   -0.0000   -0.0000    0.0000    0.0000   -0.0000    0.0001   -0.0000    0.0004
      124 V      5g3-      -0.0000    0.0000   -0.0000    0.0000    0.0000    0.0000   -0.0000    0.0000   -0.0000    0.0000
      125 V      6g3-       0.0000   -0.0000    0.0000   -0.0000    0.0000    0.0000   -0.0000    0.0000   -0.0000    0.0000
      126 V      7g3-      -0.0000    0.0000   -0.0000    0.0000    0.0000    0.0000   -0.0000    0.0000   -0.0000    0.0000
      127 V      8g3-      -0.0000    0.0000    0.0000   -0.0000    0.0000    0.0000   -0.0000    0.0000   -0.0000    0.0000
      128 V      5g2-       0.0000   -0.0001    0.0000   -0.0000   -0.0010   -0.0000    0.0000   -0.0014    0.0000   -0.0007
      129 V      6g2-       0.0000   -0.0002    0.0000    0.0000   -0.0013   -0.0000    0.0000   -0.0011    0.0000   -0.0003
      130 V      7g2-       0.0000   -0.0002    0.0000   -0.0000   -0.0008   -0.0000    0.0000   -0.0005    0.0000    0.0001
      131 V      8g2-       0.0000   -0.0001    0.0000    0.0000   -0.0005   -0.0000    0.0000   -0.0004    0.0000   -0.0000
      132 V      5g1-       0.0000   -0.0004   -0.0000   -0.0000    0.0024    0.0000    0.0000   -0.0004    0.0000    0.0001
      133 V      6g1-       0.0000   -0.0031   -0.0000   -0.0000    0.0020    0.0000    0.0000   -0.0031    0.0000    0.0019
      134 V      7g1-       0.0000   -0.0016   -0.0000   -0.0000    0.0008    0.0000    0.0000   -0.0020    0.0000    0.0006
      135 V      8g1-       0.0000   -0.0004   -0.0000   -0.0000    0.0005    0.0000    0.0000   -0.0007    0.0000   -0.0001
      136 V      5g0       -0.0000   -0.0000   -0.0003   -0.0000    0.0000   -0.0000   -0.0000   -0.0000   -0.0039   -0.0000
      137 V      6g0       -0.0000   -0.0000   -0.0039    0.0005    0.0000    0.0000   -0.0000   -0.0000   -0.0042    0.0000
      138 V      7g0       -0.0000   -0.0000   -0.0019    0.0001    0.0000    0.0000   -0.0000   -0.0000   -0.0020    0.0000
      139 V      8g0       -0.0000   -0.0000   -0.0004   -0.0001    0.0000   -0.0000   -0.0000   -0.0000   -0.0013   -0.0000
      140 V      5g1+      -0.0004   -0.0000    0.0000    0.0000    0.0000   -0.0024   -0.0004   -0.0000    0.0000    0.0000
      141 V      6g1+      -0.0031   -0.0000    0.0000    0.0000    0.0000   -0.0020   -0.0031   -0.0000    0.0000    0.0000
      142 V      7g1+      -0.0016   -0.0000    0.0000   -0.0000    0.0000   -0.0008   -0.0020   -0.0000    0.0000    0.0000
      143 V      8g1+      -0.0004   -0.0000    0.0000   -0.0000    0.0000   -0.0005   -0.0007   -0.0000    0.0000   -0.0000
      144 V      5g2+       0.0001    0.0000    0.0000   -0.0000    0.0000   -0.0010    0.0014    0.0000   -0.0000    0.0000
      145 V      6g2+       0.0002    0.0000   -0.0000   -0.0000    0.0000   -0.0013    0.0011    0.0000   -0.0000    0.0000
      146 V      7g2+       0.0002    0.0000   -0.0000    0.0000    0.0000   -0.0008    0.0005    0.0000    0.0000   -0.0000
      147 V      8g2+       0.0001    0.0000    0.0000    0.0000    0.0000   -0.0005    0.0004    0.0000   -0.0000    0.0000
      148 V      5g3+       0.0000    0.0000    0.0002   -0.0008   -0.0000    0.0000   -0.0000   -0.0000   -0.0007   -0.0000
      149 V      6g3+      -0.0000   -0.0000   -0.0022   -0.0017   -0.0000    0.0000   -0.0000   -0.0000   -0.0008    0.0000
      150 V      7g3+      -0.0000   -0.0000   -0.0010   -0.0001   -0.0000    0.0000    0.0000   -0.0000   -0.0002    0.0000
      151 V      8g3+      -0.0000   -0.0000   -0.0000    0.0002   -0.0000    0.0000   -0.0000   -0.0000   -0.0001   -0.0000
      152 V      5g4+      -0.0002   -0.0000   -0.0000    0.0000   -0.0000    0.0002    0.0014    0.0000   -0.0000    0.0000
      153 V      6g4+      -0.0023   -0.0000    0.0000    0.0000   -0.0000    0.0000   -0.0006   -0.0000   -0.0000    0.0000
      154 V      7g4+      -0.0011   -0.0000    0.0000   -0.0000   -0.0000    0.0000   -0.0005   -0.0000   -0.0000    0.0000
      155 V      8g4+      -0.0003   -0.0000    0.0000   -0.0000    0.0000   -0.0000    0.0001    0.0000   -0.0000    0.0000
      156 V      6h5-      -0.0000    0.0001    0.0000    0.0000   -0.0018   -0.0000    0.0000   -0.0006    0.0000   -0.0003
      157 V      7h5-      -0.0000    0.0001    0.0000   -0.0000   -0.0008   -0.0000    0.0000   -0.0002   -0.0000   -0.0002
      158 V      6h4-       0.0000   -0.0002    0.0000    0.0000    0.0004    0.0000    0.0000   -0.0014    0.0000   -0.0009
      159 V      7h4-      -0.0000    0.0008    0.0000    0.0000    0.0002    0.0000   -0.0000    0.0001    0.0000   -0.0011
      160 V      6h3-      -0.0000   -0.0000    0.0000    0.0000    0.0000    0.0000   -0.0000   -0.0000    0.0000   -0.0000
      161 V      7h3-      -0.0000    0.0000    0.0000   -0.0000    0.0000    0.0000   -0.0000    0.0000   -0.0000   -0.0000
      162 V      6h2-      -0.0000    0.0000    0.0000    0.0000   -0.0015   -0.0000    0.0000   -0.0006    0.0000   -0.0003
      163 V      7h2-      -0.0000    0.0003    0.0000   -0.0000   -0.0007   -0.0000    0.0000   -0.0002    0.0000   -0.0004
      164 V      6h1-       0.0000   -0.0001    0.0000   -0.0000    0.0009    0.0000    0.0000   -0.0017    0.0000   -0.0012
      165 V      7h1-      -0.0000    0.0000    0.0000   -0.0000    0.0006    0.0000    0.0000   -0.0007    0.0000   -0.0006
      166 V      6h0       -0.0000   -0.0000   -0.0003   -0.0001    0.0000    0.0000   -0.0000   -0.0000   -0.0027   -0.0000
      167 V      7h0       -0.0000   -0.0000   -0.0004    0.0002    0.0000    0.0000   -0.0000   -0.0000   -0.0012   -0.0000
      168 V      6h1+      -0.0001   -0.0000    0.0000    0.0000    0.0000   -0.0009   -0.0017   -0.0000    0.0000   -0.0000
      169 V      7h1+       0.0000    0.0000   -0.0000    0.0000    0.0000   -0.0006   -0.0007   -0.0000    0.0000   -0.0000
      170 V      6h2+      -0.0000   -0.0000   -0.0000   -0.0000    0.0000   -0.0015    0.0006    0.0000   -0.0000    0.0000
      171 V      7h2+      -0.0003   -0.0000    0.0000   -0.0000    0.0000   -0.0007    0.0002    0.0000   -0.0000    0.0000
      172 V      6h3+      -0.0000   -0.0000   -0.0004    0.0001   -0.0000    0.0000   -0.0000   -0.0000   -0.0006    0.0000
      173 V      7h3+       0.0000    0.0000    0.0007    0.0003    0.0000    0.0000   -0.0000   -0.0000   -0.0002   -0.0000
      174 V      6h4+      -0.0002   -0.0000    0.0000   -0.0000    0.0000   -0.0004   -0.0014   -0.0000    0.0000   -0.0000
      175 V      7h4+       0.0008    0.0000   -0.0000   -0.0000    0.0000   -0.0002    0.0001    0.0000    0.0000   -0.0000
      176 V      6h5+      -0.0001   -0.0000   -0.0000   -0.0000    0.0000   -0.0018    0.0006    0.0000   -0.0000    0.0000
      177 V      7h5+      -0.0001   -0.0000   -0.0000   -0.0000    0.0000   -0.0008    0.0002    0.0000   -0.0000    0.0000

          Orbital           21        22        23        24        25        26        27        28        29        30    
          Energy           -0.0206   -0.0162    0.0463    0.0766    0.0766    0.0780    0.0780    0.0788    0.0788    0.0791
          Occ. No.          0.0000    0.0000    0.0000    0.0000    0.0000    0.0000    0.0000    0.0000    0.0000    0.0000

        1 V      1s         0.0000    0.0000   -0.0000   -0.0000   -0.0000    0.0000   -0.0000   -0.0000    0.0000   -0.0000
        2 V      2s        -0.0000   -0.0001   -0.0003   -0.0000    0.0000   -0.0000    0.0000   -0.0000   -0.0000   -0.0000
        3 V      3s        -0.0000   -0.0026   -0.0052   -0.0000    0.0006   -0.0000    0.0000    0.0000    0.0000    0.0007
        4 V      4s        -0.0000    0.0570    0.1688   -0.0000    0.0076   -0.0000    0.0000    0.0000    0.0000    0.0113
        5 V      5s         0.0000   -0.0282   -0.4704    0.0000   -0.0080    0.0000   -0.0000   -0.0000   -0.0000   -0.0116
        6 V      6s         0.0000   -0.0549    0.1158    0.0000   -0.0006    0.0000   -0.0000   -0.0000   -0.0000   -0.0011
        7 V      7s         0.0000   -0.0812    0.4548   -0.0000    0.0051   -0.0000    0.0000    0.0000    0.0000    0.0072
        8 V      8s         0.0000   -0.0464    0.3954   -0.0000    0.0059   -0.0000    0.0000    0.0000    0.0000    0.0086
        9 V      9s         0.0000   -0.0543    0.5667   -0.0000    0.0093   -0.0000    0.0000    0.0000    0.0000    0.0137
       10 V     10s         0.0000   -0.0179    0.2005   -0.0000    0.0034   -0.0000    0.0000    0.0000    0.0000    0.0050
       11 V      2px        0.0001   -0.0000   -0.0000    0.0000    0.0000    0.0000   -0.0000   -0.0000   -0.0000    0.0000
       12 V      3px       -0.0028    0.0000    0.0000   -0.0000    0.0000    0.0009   -0.0000    0.0004    0.0000    0.0000
       13 V      4px       -0.3965    0.0000    0.0000   -0.0000   -0.0000   -0.0010    0.0000    0.0100    0.0000   -0.0000
       14 V      5px        0.0616   -0.0000    0.0000   -0.0000   -0.0000   -0.0015    0.0000    0.0036    0.0000    0.0000
       15 V      6px        0.3853   -0.0000    0.0000   -0.0000    0.0000   -0.0007    0.0000    0.0006    0.0000    0.0000
       16 V      7px        0.3919   -0.0000   -0.0000   -0.0000    0.0000    0.0013   -0.0000   -0.0033   -0.0000   -0.0000
       17 V      8px        0.4549   -0.0000   -0.0000    0.0000    0.0000    0.0023   -0.0000   -0.0052   -0.0000   -0.0000
       18 V      9px        0.2057   -0.0000   -0.0000    0.0000   -0.0000    0.0012   -0.0000   -0.0028   -0.0000   -0.0000
       19 V     10px        0.0385   -0.0000   -0.0000    0.0000   -0.0000    0.0003   -0.0000   -0.0006   -0.0000   -0.0000
       20 V      2py       -0.0000   -0.0000    0.0000   -0.0000    0.0000   -0.0000   -0.0000    0.0000   -0.0000    0.0000
       21 V      3py        0.0000   -0.0000    0.0000   -0.0000    0.0000   -0.0000   -0.0009   -0.0000    0.0004   -0.0000
       22 V      4py        0.0000    0.0000    0.0000   -0.0000   -0.0000    0.0000    0.0010   -0.0000    0.0100   -0.0000
       23 V      5py       -0.0000   -0.0000    0.0000   -0.0000   -0.0000    0.0000    0.0015   -0.0000    0.0036    0.0000
       24 V      6py       -0.0000   -0.0000    0.0000   -0.0000    0.0000    0.0000    0.0007   -0.0000    0.0006    0.0000
       25 V      7py       -0.0000   -0.0000   -0.0000    0.0000    0.0000   -0.0000   -0.0013    0.0000   -0.0033    0.0000
       26 V      8py       -0.0000   -0.0000   -0.0000    0.0000   -0.0000   -0.0000   -0.0023    0.0000   -0.0052   -0.0000
       27 V      9py       -0.0000   -0.0000   -0.0000    0.0000   -0.0000   -0.0000   -0.0012    0.0000   -0.0028   -0.0000
       28 V     10py       -0.0000   -0.0000   -0.0000    0.0000   -0.0000   -0.0000   -0.0003    0.0000   -0.0006   -0.0000
       29 V      2pz        0.0000    0.0004    0.0000    0.0000   -0.0000    0.0000    0.0000   -0.0000    0.0000   -0.0000
       30 V      3pz        0.0000    0.0168   -0.0012    0.0000   -0.0002    0.0000   -0.0000   -0.0000   -0.0000   -0.0002
       31 V      4pz       -0.0000   -0.4559   -0.0212    0.0000   -0.0029   -0.0000   -0.0000    0.0000    0.0000    0.0117
       32 V      5pz        0.0000    0.0425   -0.0356    0.0000   -0.0029   -0.0000   -0.0000    0.0000    0.0000    0.0036
       33 V      6pz        0.0000    0.4004   -0.0076    0.0000   -0.0010    0.0000   -0.0000   -0.0000   -0.0000    0.0004
       34 V      7pz        0.0000    0.4360    0.0392   -0.0000    0.0025    0.0000    0.0000   -0.0000   -0.0000   -0.0035
       35 V      8pz        0.0000    0.5141    0.0669   -0.0000    0.0045   -0.0000    0.0000   -0.0000   -0.0000   -0.0053
       36 V      9pz        0.0000    0.2348    0.0375   -0.0000    0.0026   -0.0000    0.0000   -0.0000   -0.0000   -0.0028
       37 V     10pz        0.0000    0.0446    0.0086   -0.0000    0.0006   -0.0000    0.0000   -0.0000   -0.0000   -0.0006
       38 V      3d2-      -0.0000    0.0000    0.0000    0.0000   -0.0000    0.0000    0.0089    0.0000   -0.0017    0.0000
       39 V      4d2-      -0.0000    0.0000    0.0000    0.0000    0.0000   -0.0000   -0.0165    0.0000   -0.0012   -0.0000
       40 V      5d2-      -0.0000    0.0000    0.0000    0.0000    0.0000   -0.0000   -0.0334    0.0000   -0.0006   -0.0000
       41 V      6d2-      -0.0000    0.0000    0.0000    0.0000    0.0000   -0.0000   -0.0274    0.0000   -0.0001   -0.0000
       42 V      7d2-      -0.0000    0.0000    0.0000    0.0000    0.0000   -0.0000   -0.0250    0.0000   -0.0000   -0.0000
       43 V      8d2-      -0.0000    0.0000    0.0000    0.0000    0.0000   -0.0000   -0.0156   -0.0000    0.0000   -0.0000
       44 V      9d2-      -0.0000    0.0000    0.0000    0.0000    0.0000   -0.0000   -0.0079   -0.0000    0.0000   -0.0000
       45 V     10d2-      -0.0000    0.0000    0.0000    0.0000    0.0000   -0.0000   -0.0015   -0.0000    0.0000   -0.0000
       46 V      3d1-      -0.0000    0.0000   -0.0000    0.0000    0.0000    0.0000    0.0025    0.0000   -0.0037   -0.0000
       47 V      4d1-      -0.0000    0.0000   -0.0000    0.0000    0.0000    0.0000    0.0014    0.0000   -0.0199    0.0000
       48 V      5d1-      -0.0000    0.0000    0.0000    0.0000   -0.0000   -0.0000   -0.0015    0.0000   -0.0279    0.0000
       49 V      6d1-      -0.0000    0.0000    0.0000    0.0000   -0.0000   -0.0000   -0.0021    0.0000   -0.0207    0.0000
       50 V      7d1-      -0.0000    0.0000    0.0000    0.0000   -0.0000   -0.0000   -0.0020    0.0000   -0.0186    0.0000
       51 V      8d1-      -0.0000    0.0000    0.0000    0.0000   -0.0000   -0.0000   -0.0013    0.0000   -0.0114    0.0000
       52 V      9d1-      -0.0000    0.0000    0.0000   -0.0000   -0.0000   -0.0000   -0.0007    0.0000   -0.0057    0.0000
       53 V     10d1-      -0.0000    0.0000    0.0000   -0.0000   -0.0000   -0.0000   -0.0001    0.0000   -0.0011    0.0000
       54 V      3d0        0.0000    0.0570   -0.0132   -0.0000    0.0053   -0.0000    0.0000   -0.0000   -0.0000   -0.0112
       55 V      4d0        0.0000    0.1824   -0.0062   -0.0000    0.0010    0.0000   -0.0000    0.0000    0.0000   -0.0214
       56 V      5d0        0.0000    0.1876    0.0241    0.0000   -0.0032    0.0000   -0.0000    0.0000    0.0000   -0.0224
       57 V      6d0        0.0000    0.1165    0.0219    0.0000   -0.0036    0.0000   -0.0000    0.0000    0.0000   -0.0148
       58 V      7d0        0.0000    0.0985    0.0191    0.0000   -0.0034    0.0000   -0.0000    0.0000    0.0000   -0.0131
       59 V      8d0        0.0000    0.0533    0.0117    0.0000   -0.0023    0.0000   -0.0000    0.0000    0.0000   -0.0078
       60 V      9d0        0.0000    0.0244    0.0059    0.0000   -0.0012    0.0000   -0.0000    0.0000    0.0000   -0.0038
       61 V     10d0        0.0000    0.0044    0.0011    0.0000   -0.0002    0.0000   -0.0000    0.0000    0.0000   -0.0007
       62 V      3d1+       0.1464   -0.0000    0.0000   -0.0000   -0.0000   -0.0025    0.0000   -0.0037   -0.0000    0.0000
       63 V      4d1+       0.2939   -0.0000   -0.0000   -0.0000    0.0000   -0.0014    0.0000   -0.0199   -0.0000    0.0000
       64 V      5d1+       0.3096   -0.0000   -0.0000    0.0000    0.0000    0.0015   -0.0000   -0.0279   -0.0000    0.0000
       65 V      6d1+       0.1870   -0.0000   -0.0000    0.0000    0.0000    0.0021   -0.0000   -0.0207   -0.0000    0.0000
       66 V      7d1+       0.1545   -0.0000   -0.0000    0.0000    0.0000    0.0020   -0.0000   -0.0186   -0.0000   -0.0000
       67 V      8d1+       0.0815   -0.0000   -0.0000    0.0000    0.0000    0.0013   -0.0000   -0.0114   -0.0000   -0.0000
       68 V      9d1+       0.0375   -0.0000   -0.0000    0.0000    0.0000    0.0007   -0.0000   -0.0057   -0.0000   -0.0000
       69 V     10d1+       0.0068   -0.0000   -0.0000    0.0000    0.0000    0.0001   -0.0000   -0.0011   -0.0000   -0.0000
       70 V      3d2+      -0.0337    0.0000   -0.0000   -0.0000    0.0000    0.0089   -0.0000    0.0017    0.0000    0.0000
       71 V      4d2+      -0.0655    0.0000    0.0000    0.0000    0.0000   -0.0165    0.0000    0.0012    0.0000    0.0000
       72 V      5d2+      -0.0733    0.0000   -0.0000    0.0000    0.0000   -0.0334    0.0000    0.0006    0.0000   -0.0000
       73 V      6d2+      -0.0438    0.0000    0.0000    0.0000    0.0000   -0.0274    0.0000    0.0001    0.0000   -0.0000
       74 V      7d2+      -0.0358    0.0000    0.0000    0.0000    0.0000   -0.0250    0.0000    0.0000    0.0000   -0.0000
       75 V      8d2+      -0.0187    0.0000    0.0000    0.0000    0.0000   -0.0156    0.0000   -0.0000   -0.0000   -0.0000
       76 V      9d2+      -0.0087    0.0000    0.0000    0.0000    0.0000   -0.0079    0.0000   -0.0000   -0.0000   -0.0000
       77 V     10d2+      -0.0016    0.0000    0.0000    0.0000    0.0000   -0.0015    0.0000   -0.0000   -0.0000   -0.0000
       78 V      4f3-       0.0000   -0.0000   -0.0000    0.1242    0.0000    0.0000   -0.0000   -0.0000    0.0000   -0.0000
       79 V      5f3-       0.0000   -0.0000    0.0000    0.3776    0.0000    0.0000   -0.0000   -0.0000    0.0000   -0.0000
       80 V      6f3-       0.0000   -0.0000    0.0000    0.5079    0.0000    0.0000   -0.0000   -0.0000    0.0000   -0.0000
       81 V      7f3-       0.0000   -0.0000    0.0000    0.5489    0.0000    0.0000   -0.0000   -0.0000    0.0000   -0.0000
       82 V      8f3-       0.0000    0.0000    0.0000    0.4094    0.0000    0.0000   -0.0000   -0.0000    0.0000   -0.0000
       83 V      9f3-       0.0000    0.0000    0.0000    0.3393    0.0000    0.0000   -0.0000   -0.0000    0.0000   -0.0000
       84 V      4f2-      -0.0000    0.0000    0.0000    0.0000   -0.0000    0.0000    0.1231   -0.0000    0.0114    0.0000
       85 V      5f2-      -0.0000    0.0000    0.0000    0.0000   -0.0000    0.0000    0.3737   -0.0000    0.0358    0.0000
       86 V      6f2-      -0.0000    0.0000    0.0000    0.0000   -0.0000    0.0000    0.5040   -0.0000    0.0487    0.0000
       87 V      7f2-      -0.0000    0.0000    0.0000    0.0000   -0.0000    0.0000    0.5458   -0.0000    0.0529    0.0000
       88 V      8f2-      -0.0000    0.0000    0.0000    0.0000   -0.0000    0.0000    0.4078   -0.0000    0.0396    0.0000
       89 V      9f2-      -0.0000    0.0000    0.0000    0.0000   -0.0000    0.0000    0.3384   -0.0000    0.0329    0.0000
       90 V      4f1-      -0.0000   -0.0000   -0.0000   -0.0000    0.0000   -0.0000   -0.0120   -0.0000    0.1213   -0.0000
       91 V      5f1-      -0.0000   -0.0000   -0.0000   -0.0000    0.0000   -0.0000   -0.0363   -0.0000    0.3723   -0.0000
       92 V      6f1-      -0.0000    0.0000   -0.0000   -0.0000    0.0000   -0.0000   -0.0488   -0.0000    0.5038   -0.0000
       93 V      7f1-      -0.0000    0.0000   -0.0000   -0.0000    0.0000   -0.0000   -0.0528   -0.0000    0.5466   -0.0000
       94 V      8f1-      -0.0000    0.0000   -0.0000   -0.0000    0.0000   -0.0000   -0.0395   -0.0000    0.4089   -0.0000
       95 V      9f1-      -0.0000    0.0000   -0.0000   -0.0000    0.0000   -0.0000   -0.0328   -0.0000    0.3397   -0.0000
       96 V      4f0        0.0000    0.0048   -0.0112    0.0000   -0.0129    0.0000   -0.0000    0.0000    0.0000    0.1202
       97 V      5f0        0.0000    0.0142   -0.0199    0.0000   -0.0370    0.0000   -0.0000    0.0000    0.0000    0.3710
       98 V      6f0        0.0000    0.0134   -0.0082    0.0000   -0.0488    0.0000   -0.0000    0.0000    0.0000    0.5036
       99 V      7f0        0.0000    0.0110   -0.0059    0.0000   -0.0526    0.0000   -0.0000    0.0000    0.0000    0.5470
      100 V      8f0        0.0000    0.0069   -0.0046    0.0000   -0.0392    0.0000   -0.0000    0.0000    0.0000    0.4095
      101 V      9f0        0.0000    0.0049   -0.0032    0.0000   -0.0324    0.0000   -0.0000    0.0000    0.0000    0.3403
      102 V      4f1+       0.0076   -0.0000    0.0000   -0.0000    0.0000    0.0120   -0.0000    0.1213    0.0000   -0.0000
      103 V      5f1+       0.0172   -0.0000   -0.0000   -0.0000    0.0000    0.0363   -0.0000    0.3723    0.0000   -0.0000
      104 V      6f1+       0.0167   -0.0000   -0.0000   -0.0000    0.0000    0.0488   -0.0000    0.5038    0.0000   -0.0000
      105 V      7f1+       0.0145   -0.0000   -0.0000   -0.0000    0.0000    0.0528   -0.0000    0.5466    0.0000   -0.0000
      106 V      8f1+       0.0093   -0.0000   -0.0000   -0.0000    0.0000    0.0395   -0.0000    0.4089    0.0000   -0.0000
      107 V      9f1+       0.0068   -0.0000   -0.0000   -0.0000    0.0000    0.0328   -0.0000    0.3397    0.0000   -0.0000
      108 V      4f2+      -0.0061    0.0000   -0.0000   -0.0000    0.0000    0.1231   -0.0000   -0.0114   -0.0000    0.0000
      109 V      5f2+      -0.0079    0.0000   -0.0000   -0.0000    0.0000    0.3737   -0.0000   -0.0358   -0.0000    0.0000
      110 V      6f2+      -0.0054    0.0000   -0.0000   -0.0000    0.0000    0.5040   -0.0000   -0.0487   -0.0000    0.0000
      111 V      7f2+      -0.0047    0.0000   -0.0000   -0.0000    0.0000    0.5458   -0.0000   -0.0529   -0.0000    0.0000
      112 V      8f2+      -0.0030    0.0000   -0.0000   -0.0000    0.0000    0.4078   -0.0000   -0.0396   -0.0000    0.0000
      113 V      9f2+      -0.0021    0.0000   -0.0000   -0.0000    0.0000    0.3384   -0.0000   -0.0329   -0.0000    0.0000
      114 V      4f3+       0.0000    0.0010   -0.0085   -0.0000    0.1234   -0.0000    0.0000    0.0000    0.0000    0.0106
      115 V      5f3+       0.0000   -0.0021   -0.0151   -0.0000    0.3756   -0.0000    0.0000    0.0000    0.0000    0.0350
      116 V      6f3+       0.0000   -0.0006   -0.0080   -0.0000    0.5055   -0.0000    0.0000    0.0000    0.0000    0.0485
      117 V      7f3+       0.0000    0.0001   -0.0067   -0.0000    0.5463   -0.0000    0.0000    0.0000    0.0000    0.0529
      118 V      8f3+       0.0000   -0.0002   -0.0050   -0.0000    0.4075   -0.0000    0.0000    0.0000    0.0000    0.0397
      119 V      9f3+       0.0000   -0.0001   -0.0037   -0.0000    0.3377   -0.0000    0.0000    0.0000    0.0000    0.0330
      120 V      5g4-      -0.0000    0.0000    0.0000   -0.0000    0.0000    0.0000    0.0000   -0.0000    0.0002   -0.0000
      121 V      6g4-      -0.0000   -0.0000    0.0000   -0.0000    0.0000   -0.0000   -0.0000   -0.0000    0.0004    0.0000
      122 V      7g4-      -0.0000   -0.0000   -0.0000   -0.0000    0.0000   -0.0000   -0.0000   -0.0000    0.0003   -0.0000
      123 V      8g4-      -0.0000    0.0000    0.0000   -0.0000    0.0000   -0.0000   -0.0000   -0.0000    0.0002    0.0000
      124 V      5g3-      -0.0000   -0.0000    0.0000    0.0016    0.0000   -0.0000   -0.0000    0.0000   -0.0000    0.0000
      125 V      6g3-      -0.0000   -0.0000   -0.0000    0.0037    0.0000   -0.0000   -0.0000    0.0000   -0.0000   -0.0000
      126 V      7g3-      -0.0000   -0.0000    0.0000    0.0034    0.0000   -0.0000   -0.0000    0.0000   -0.0000   -0.0000
      127 V      8g3-      -0.0000   -0.0000   -0.0000    0.0024    0.0000   -0.0000   -0.0000    0.0000   -0.0000   -0.0000
      128 V      5g2-       0.0000   -0.0000   -0.0000    0.0000   -0.0000    0.0000    0.0012   -0.0000    0.0005   -0.0000
      129 V      6g2-       0.0000   -0.0000    0.0000    0.0000   -0.0000    0.0000    0.0033   -0.0000    0.0010   -0.0000
      130 V      7g2-      -0.0000   -0.0000   -0.0000    0.0000   -0.0000    0.0000    0.0033   -0.0000    0.0008    0.0000
      131 V      8g2-       0.0000   -0.0000    0.0000    0.0000   -0.0000    0.0000    0.0024   -0.0000    0.0005    0.0000
      132 V      5g1-      -0.0000    0.0000    0.0000   -0.0000   -0.0000   -0.0000   -0.0002   -0.0000    0.0009   -0.0000
      133 V      6g1-      -0.0000   -0.0000    0.0000   -0.0000    0.0000   -0.0000   -0.0007   -0.0000    0.0027   -0.0000
      134 V      7g1-      -0.0000   -0.0000    0.0000   -0.0000    0.0000   -0.0000   -0.0006   -0.0000    0.0029   -0.0000
      135 V      8g1-       0.0000   -0.0000   -0.0000   -0.0000    0.0000   -0.0000   -0.0004   -0.0000    0.0023   -0.0000
      136 V      5g0       -0.0000   -0.0008    0.0000    0.0000   -0.0003    0.0000   -0.0000    0.0000    0.0000    0.0008
      137 V      6g0        0.0000    0.0037   -0.0005    0.0000   -0.0005    0.0000   -0.0000    0.0000    0.0000    0.0025
      138 V      7g0        0.0000    0.0017   -0.0001    0.0000   -0.0005    0.0000   -0.0000    0.0000    0.0000    0.0028
      139 V      8g0       -0.0000   -0.0001    0.0001    0.0000   -0.0004    0.0000   -0.0000    0.0000    0.0000    0.0023
      140 V      5g1+       0.0001    0.0000   -0.0000   -0.0000    0.0000    0.0002   -0.0000    0.0009    0.0000   -0.0000
      141 V      6g1+       0.0019   -0.0000   -0.0000   -0.0000    0.0000    0.0007   -0.0000    0.0027    0.0000   -0.0000
      142 V      7g1+       0.0006   -0.0000   -0.0000   -0.0000    0.0000    0.0006   -0.0000    0.0029    0.0000   -0.0000
      143 V      8g1+      -0.0001    0.0000    0.0000   -0.0000    0.0000    0.0004   -0.0000    0.0023    0.0000   -0.0000
      144 V      5g2+       0.0007   -0.0000    0.0000   -0.0000    0.0000    0.0012   -0.0000   -0.0005   -0.0000    0.0000
      145 V      6g2+       0.0003    0.0000    0.0000   -0.0000    0.0000    0.0033   -0.0000   -0.0010   -0.0000    0.0000
      146 V      7g2+      -0.0001   -0.0000   -0.0000   -0.0000    0.0000    0.0033   -0.0000   -0.0008   -0.0000    0.0000
      147 V      8g2+       0.0000   -0.0000   -0.0000   -0.0000    0.0000    0.0024   -0.0000   -0.0005   -0.0000    0.0000
      148 V      5g3+      -0.0000   -0.0005    0.0016   -0.0000    0.0017   -0.0000    0.0000    0.0000    0.0000    0.0009
      149 V      6g3+       0.0000    0.0023    0.0033   -0.0000    0.0037   -0.0000    0.0000    0.0000    0.0000    0.0014
      150 V      7g3+       0.0000    0.0011    0.0001   -0.0000    0.0033   -0.0000    0.0000    0.0000    0.0000    0.0010
      151 V      8g3+       0.0000   -0.0000   -0.0003   -0.0000    0.0023   -0.0000    0.0000    0.0000    0.0000    0.0006
      152 V      5g4+       0.0014   -0.0000   -0.0000    0.0000   -0.0000   -0.0000    0.0000    0.0002    0.0000   -0.0000
      153 V      6g4+       0.0027   -0.0000   -0.0000    0.0000   -0.0000    0.0000   -0.0000    0.0004    0.0000   -0.0000
      154 V      7g4+       0.0011   -0.0000   -0.0000    0.0000   -0.0000    0.0000   -0.0000    0.0003    0.0000   -0.0000
      155 V      8g4+       0.0004   -0.0000    0.0000    0.0000   -0.0000    0.0000   -0.0000    0.0002    0.0000   -0.0000
      156 V      6h5-       0.0000   -0.0000    0.0000    0.0000   -0.0000   -0.0000   -0.0000   -0.0000    0.0000    0.0000
      157 V      7h5-       0.0000    0.0000   -0.0000    0.0000   -0.0000    0.0000    0.0001   -0.0000    0.0000    0.0000
      158 V      6h4-       0.0000   -0.0000   -0.0000    0.0000   -0.0000   -0.0000   -0.0000   -0.0000    0.0000   -0.0000
[...]
         4    8       7.46832855E-04  8.65690511E+02  2.12409384E-06  1.69449826E-10  8.65690513E+02
         4   10       1.69913931E-01  9.31842128E+06  2.28640433E-02  6.50313857E-06  9.31842130E+06
         4   12       2.82445143E-01  2.66410719E+00  5.21917174E+07  1.50194445E-01  5.21917202E+07
         4   14       3.32949178E-01  5.21917809E+07  2.66410403E+00  9.33234326E+06  6.15241268E+07
         4   16       2.56362352E-01  1.11672000E+07  2.88029943E-02  4.05794498E+07  5.17466498E+07
         4   18       5.53245984E-02  2.88029974E-02  1.11672519E+07  9.45976729E-02  1.11672520E+07
         5    7       7.46832740E-04  2.12408882E-06  8.65689476E+02  6.78363305E-18  8.65689478E+02
         5    9       1.69913941E-01  2.28640505E-02  9.31842045E+06  4.86477034E-14  9.31842047E+06
         5   11       3.32948849E-01  5.21917459E+07  2.66410412E+00  9.33231077E+06  6.15240593E+07
         5   13       2.82445228E-01  2.66410589E+00  5.21917301E+07  1.50193754E-01  5.21917329E+07
         5   15       5.53242448E-02  2.88029726E-02  1.11671782E+07  9.45976265E-02  1.11671783E+07
         5   17       2.56362676E-01  1.11672205E+07  2.88030989E-02  4.05794974E+07  5.17467179E+07
         6    8       7.46832740E-04  2.12408882E-06  8.65689476E+02  6.78363305E-18  8.65689478E+02
         6   10       1.69913941E-01  2.28640505E-02  9.31842045E+06  4.86477034E-14  9.31842047E+06
         6   12       3.32948849E-01  5.21917459E+07  2.66410412E+00  9.33231077E+06  6.15240593E+07
         6   14       2.82445228E-01  2.66410589E+00  5.21917301E+07  1.50193754E-01  5.21917329E+07
         6   16       5.53242448E-02  2.88029726E-02  1.11671782E+07  9.45976265E-02  1.11671783E+07
         6   18       2.56362676E-01  1.11672205E+07  2.88030989E-02  4.05794974E+07  5.17467179E+07
         7    9       1.83536483E-01  3.97210773E-06  3.87642417E-15  7.35155222E+06  7.35155222E+06
         7   11       5.19575157E-02  2.53291853E-01  8.14037940E+06  3.75912044E-13  8.14037966E+06
         7   13       5.19572815E-02  8.14034294E+06  2.53292914E-01  1.10233442E-05  8.14034320E+06
         7   15       2.21902692E-01  3.82596609E+07  5.99758465E-05  1.03277715E-06  3.82596609E+07
         7   17       2.21902548E-01  5.99754673E-05  3.82596416E+07  3.94298647E-14  3.82596416E+07
         8   10       1.83536483E-01  3.97210773E-06  3.87642417E-15  7.35155222E+06  7.35155222E+06
         8   12       5.19575157E-02  2.53291853E-01  8.14037940E+06  3.75912044E-13  8.14037966E+06
         8   14       5.19572815E-02  8.14034294E+06  2.53292914E-01  1.10233442E-05  8.14034320E+06
         8   16       2.21902692E-01  3.82596609E+07  5.99758465E-05  1.03277715E-06  3.82596609E+07
         8   18       2.21902548E-01  5.99754673E-05  3.82596416E+07  3.94298647E-14  3.82596416E+07
         9   11       6.57921156E-03  7.83876567E-03  2.51929931E+05  2.06841767E-14  2.51929939E+05
         9   13       6.57906297E-03  2.51924255E+05  7.83896269E-03  5.34712181E-07  2.51924263E+05
         9   15       1.67243277E-01  7.73751679E+06  1.21292381E-05  6.43991860E-07  7.73751679E+06
         9   17       1.67242846E-01  1.21294836E-05  7.73749901E+06  1.48274790E-18  7.73749901E+06
        10   12       6.57921156E-03  7.83876567E-03  2.51929931E+05  2.06841767E-14  2.51929939E+05
        10   14       6.57906297E-03  2.51924255E+05  7.83896269E-03  5.34712181E-07  2.51924263E+05
        10   16       1.67243277E-01  7.73751679E+06  1.21292381E-05  6.43991860E-07  7.73751679E+06
        10   18       1.67242846E-01  1.21294836E-05  7.73749901E+06  1.48274790E-18  7.73749901E+06
        11   15       1.25928202E-04  1.49727814E-06  4.74439650E+01  1.24033862E-06  4.74439677E+01
        11   17       2.33250957E-04  4.74439159E+01  1.49728515E-06  4.04346091E+01  8.78785265E+01
        12   16       1.25928202E-04  1.49727814E-06  4.74439650E+01  1.24033862E-06  4.74439677E+01
        12   18       2.33250957E-04  4.74439159E+01  1.49728515E-06  4.04346091E+01  8.78785265E+01
        13   15       2.33250518E-04  4.74438402E+01  1.49727771E-06  4.04342005E+01  8.78780421E+01
        13   17       1.25928246E-04  1.49727639E-06  4.74441007E+01  1.24035080E-06  4.74441035E+01
        14   16       2.33250518E-04  4.74438402E+01  1.49727771E-06  4.04342005E+01  8.78780421E+01
        14   18       1.25928246E-04  1.49727639E-06  4.74441007E+01  1.24035080E-06  4.74441035E+01
     -----------------------------------------------------------------------------------------------
--

++ Velocity transition strengths (SO states):
   ------------------------------------------
    for osc. strength at least    1.0000000000000001E-005

      From   To        Osc. strength     Einstein coefficients Ax, Ay, Az (sec-1)    Total A (sec-1)
     -----------------------------------------------------------------------------------------------
         1    3       3.30391929E-01  4.32191542E+07  1.06044238E-01  2.79445255E-05  4.32191543E+07
         1    5       3.30391932E-01  1.06044238E-01  4.32191588E+07  1.94948344E-13  4.32191589E+07
         1    7       3.17887812E-01  2.90130880E-05  4.45684748E-14  4.97807937E+07  4.97807937E+07
         1    9       4.39704250E-03  7.82008093E-06  9.49343677E-16  1.56118302E+06  1.56118302E+06
         1   11       4.12683843E-04  8.04526341E-03  2.58565345E+05  4.21726838E-14  2.58565353E+05
         1   13       4.12676481E-04  2.58560735E+05  8.04542938E-03  2.14192740E-06  2.58560743E+05
         1   15       2.52033840E-03  1.65750243E+06  2.59822013E-06  2.11510813E-06  1.65750243E+06
         1   17       2.52033221E-03  2.59840954E-06  1.65749848E+06  1.99452158E-15  1.65749848E+06
         2    4       3.30391929E-01  4.32191542E+07  1.06044238E-01  2.79445255E-05  4.32191543E+07
         2    6       3.30391932E-01  1.06044238E-01  4.32191588E+07  1.94948344E-13  4.32191589E+07
         2    8       3.17887812E-01  2.90130880E-05  4.45684748E-14  4.97807937E+07  4.97807937E+07
         2   10       4.39704250E-03  7.82008093E-06  9.49343677E-16  1.56118302E+06  1.56118302E+06
         2   12       4.12683843E-04  8.04526341E-03  2.58565345E+05  4.21726838E-14  2.58565353E+05
         2   14       4.12676481E-04  2.58560735E+05  8.04542938E-03  2.14192740E-06  2.58560743E+05
         2   16       2.52033840E-03  1.65750243E+06  2.59822013E-06  2.11510813E-06  1.65750243E+06
         2   18       2.52033221E-03  2.59840954E-06  1.65749848E+06  1.99452158E-15  1.65749848E+06
         3    7       1.02597101E-04  1.18925735E+02  2.91798541E-07  8.65041013E-09  1.18925735E+02
         3    9       1.89064173E-01  1.03686951E+07  2.54410297E-02  7.14724401E-06  1.03686951E+07
         3   11       1.64420813E-01  1.55087174E+00  3.03826590E+07  8.56274389E-02  3.03826607E+07
         3   13       1.93213595E-01  3.03826959E+07  1.55086981E+00  5.32046642E+06  3.57031639E+07
         3   15       1.40591160E-01  6.34012547E+06  1.63527670E-02  2.20382489E+07  2.83783744E+07
         3   17       3.14101718E-02  1.63527611E-02  6.34015484E+06  5.13749435E-02  6.34015491E+06
         4    8       1.02597101E-04  1.18925735E+02  2.91798541E-07  8.65041013E-09  1.18925735E+02
         4   10       1.89064173E-01  1.03686951E+07  2.54410297E-02  7.14724401E-06  1.03686951E+07
         4   12       1.64420813E-01  1.55087174E+00  3.03826590E+07  8.56274389E-02  3.03826607E+07
         4   14       1.93213595E-01  3.03826959E+07  1.55086981E+00  5.32046642E+06  3.57031639E+07
         4   16       1.40591160E-01  6.34012547E+06  1.63527670E-02  2.20382489E+07  2.83783744E+07
         4   18       3.14101718E-02  1.63527611E-02  6.34015484E+06  5.13749435E-02  6.34015491E+06
         5    7       1.02597355E-04  2.91803721E-07  1.18925904E+02  6.36796072E-17  1.18925905E+02
         5    9       1.89064187E-01  2.54410522E-02  1.03686943E+07  4.71589337E-14  1.03686943E+07
         5   11       1.93213378E-01  3.03826724E+07  1.55086987E+00  5.32044602E+06  3.57031200E+07
         5   13       1.64420840E-01  1.55087085E+00  3.03826621E+07  8.56269823E-02  3.03826638E+07
         5   15       3.14099819E-02  1.63527561E-02  6.34011518E+06  5.13749255E-02  6.34011524E+06
         5   17       1.40591352E-01  6.34013943E+06  1.63528312E-02  2.20382753E+07  2.83784147E+07
         6    8       1.02597355E-04  2.91803721E-07  1.18925904E+02  6.36796072E-17  1.18925905E+02
         6   10       1.89064187E-01  2.54410522E-02  1.03686943E+07  4.71589337E-14  1.03686943E+07
         6   12       1.93213378E-01  3.03826724E+07  1.55086987E+00  5.32044602E+06  3.57031200E+07
         6   14       1.64420840E-01  1.55087085E+00  3.03826621E+07  8.56269823E-02  3.03826638E+07
         6   16       3.14099819E-02  1.63527561E-02  6.34011518E+06  5.13749255E-02  6.34011524E+06
         6   18       1.40591352E-01  6.34013943E+06  1.63528312E-02  2.20382753E+07  2.83784147E+07
         7    9       2.11599174E-01  4.63479861E-06  8.28594407E-15  8.47563253E+06  8.47563253E+06
         7   11       2.78289337E-02  1.35665933E-01  4.36007888E+06  1.83153906E-13  4.36007901E+06
         7   13       2.78287975E-02  4.36005766E+06  1.35666514E-01  5.28314129E-06  4.36005779E+06
         7   15       1.22148602E-01  2.10604941E+07  3.30146740E-05  1.01569657E-06  2.10604941E+07
         7   17       1.22148510E-01  3.30140424E-05  2.10604813E+07  1.40241789E-14  2.10604813E+07
         8   10       2.11599174E-01  4.63479861E-06  8.28594407E-15  8.47563253E+06  8.47563253E+06
         8   12       2.78289337E-02  1.35665933E-01  4.36007888E+06  1.83153906E-13  4.36007901E+06
         8   14       2.78287975E-02  4.36005766E+06  1.35666514E-01  5.28314129E-06  4.36005779E+06
         8   16       1.22148602E-01  2.10604941E+07  3.30146740E-05  1.01569657E-06  2.10604941E+07
         8   18       1.22148510E-01  3.30140424E-05  2.10604813E+07  1.40241789E-14  2.10604813E+07
         9   11       4.16276925E-03  4.95973563E-03  1.59400531E+05  1.62800292E-14  1.59400536E+05
         9   13       4.16268172E-03  1.59397188E+05  4.95984780E-03  5.59910161E-07  1.59397193E+05
         9   15       7.05728019E-02  3.26506482E+06  5.11821320E-06  6.19181672E-07  3.26506482E+06
         9   17       7.05726124E-02  5.11846149E-06  3.26505695E+06  7.00701787E-18  3.26505695E+06
        10   12       4.16276925E-03  4.95973563E-03  1.59400531E+05  1.62800292E-14  1.59400536E+05
        10   14       4.16268172E-03  1.59397188E+05  4.95984780E-03  5.59910161E-07  1.59397193E+05
        10   16       7.05728019E-02  3.26506482E+06  5.11821320E-06  6.19181672E-07  3.26506482E+06
        10   18       7.05726124E-02  5.11846149E-06  3.26505695E+06  7.00701787E-18  3.26505695E+06
        11   15       1.30352609E+00  1.54988855E-02  4.91110507E+05  7.47450771E-04  4.91110523E+05
        11   17       1.36819329E+00  4.91110059E+05  1.54988543E-02  2.43657465E+04  5.15475821E+05
        12   16       1.30352609E+00  1.54988855E-02  4.91110507E+05  7.47450771E-04  4.91110523E+05
        12   18       1.36819329E+00  4.91110059E+05  1.54988543E-02  2.43657465E+04  5.15475821E+05
        13   15       1.36819853E+00  4.91109533E+05  1.54989064E-02  2.43663748E+04  5.15475923E+05
        13   17       1.30351769E+00  1.54988932E-02  4.91108573E+05  7.47430886E-04  4.91108589E+05
        14   16       1.36819853E+00  4.91109533E+05  1.54989064E-02  2.43663748E+04  5.15475923E+05
        14   18       1.30351769E+00  1.54988932E-02  4.91108573E+05  7.47430886E-04  4.91108589E+05
     -----------------------------------------------------------------------------------------------
--

++ Length and velocity gauge comparison (SO states):

 --------------------------------------------------
 A comparison between the dipole oscillator strengths in 
 length and velocity gauge will be performed

 All dipole oscillator differences above the tolerance of   0.10000000000000001       will be printed 

 Due to basis set deficiency these oscillator may be problematic 

 The tolerance is defined as ABS(1-O_l/O_v) 
 O_l : dipole oscillator strength in length gauge
 O_p : dipole oscillator strength in velocity gauge
 --------------------------------------------------

  Problematic transitions have been found

      From   To       Difference (%) Osc. st. (len.) Osc. st. (vel.)
     ---------------------------------------------------------------
         1   11            16.820963  4.82101241E-04  4.12683843E-04
         1   13            16.820933  4.82092514E-04  4.12676481E-04
         1   15            25.890585  3.17286875E-03  2.52033840E-03
         1   17            25.890583  3.17286092E-03  2.52033221E-03
         2   12            16.820963  4.82101241E-04  4.12683843E-04
         2   14            16.820933  4.82092514E-04  4.12676481E-04
         2   16            25.890585  3.17286875E-03  2.52033840E-03
         2   18            25.890583  3.17286092E-03  2.52033221E-03
         3    7           627.927831  7.46832855E-04  1.02597101E-04
         3    9            10.128964  1.69913931E-01  1.89064173E-01
         3   11            71.781867  2.82445143E-01  1.64420813E-01
         3   13            72.321817  3.32949178E-01  1.93213595E-01
         3   15            82.345997  2.56362352E-01  1.40591160E-01
         3   17            76.135931  5.53245984E-02  3.14101718E-02
         4    8           627.927831  7.46832855E-04  1.02597101E-04
         4   10            10.128964  1.69913931E-01  1.89064173E-01
         4   12            71.781867  2.82445143E-01  1.64420813E-01
         4   14            72.321817  3.32949178E-01  1.93213595E-01
         4   16            82.345997  2.56362352E-01  1.40591160E-01
         4   18            76.135931  5.53245984E-02  3.14101718E-02
         5    7           627.925922  7.46832740E-04  1.02597355E-04
         5    9            10.128965  1.69913941E-01  1.89064187E-01
         5   11            72.321840  3.32948849E-01  1.93213378E-01
         5   13            71.781891  2.82445228E-01  1.64420840E-01
         5   15            76.135870  5.53242448E-02  3.14099819E-02
         5   17            82.345978  2.56362676E-01  1.40591352E-01
         6    8           627.925922  7.46832740E-04  1.02597355E-04
         6   10            10.128965  1.69913941E-01  1.89064187E-01
         6   12            72.321840  3.32948849E-01  1.93213378E-01
         6   14            71.781891  2.82445228E-01  1.64420840E-01
         6   16            76.135870  5.53242448E-02  3.14099819E-02
         6   18            82.345978  2.56362676E-01  1.40591352E-01
         7    9            13.262193  1.83536483E-01  2.11599174E-01
         7   11            86.703221  5.19575157E-02  2.78289337E-02
         7   13            86.703294  5.19572815E-02  2.78287975E-02
         7   15            81.666174  2.21902692E-01  1.22148602E-01
         7   17            81.666194  2.21902548E-01  1.22148510E-01
         8   10            13.262193  1.83536483E-01  2.11599174E-01
         8   12            86.703221  5.19575157E-02  2.78289337E-02
         8   14            86.703294  5.19572815E-02  2.78287975E-02
         8   16            81.666174  2.21902692E-01  1.22148602E-01
         8   18            81.666194  2.21902548E-01  1.22148510E-01
         9   11            58.048913  6.57921156E-03  4.16276925E-03
         9   13            58.048667  6.57906297E-03  4.16268172E-03
         9   15           136.979788  1.67243277E-01  7.05728019E-02
         9   17           136.979815  1.67242846E-01  7.05726124E-02
        10   12            58.048913  6.57921156E-03  4.16276925E-03
        10   14            58.048667  6.57906297E-03  4.16268172E-03
        10   16           136.979788  1.67243277E-01  7.05728019E-02
        10   18           136.979815  1.67242846E-01  7.05726124E-02
        11   15            99.990339  1.25928202E-04  1.30352609E+00
        11   17            99.982952  2.33250957E-04  1.36819329E+00
        12   16            99.990339  1.25928202E-04  1.30352609E+00
        12   18            99.982952  2.33250957E-04  1.36819329E+00
        13   15            99.982952  2.33250518E-04  1.36819853E+00
        13   17            99.990339  1.25928246E-04  1.30351769E+00
        14   16            99.982952  2.33250518E-04  1.36819853E+00
        14   18            99.990339  1.25928246E-04  1.30351769E+00
     ---------------------------------------------------------------

 Number of problematic transitions =                    58

--

 Electric-dipole - electric-octupole not included
++ I/O STATISTICS
 
  I. General I/O information
  - - - - - - - - - - - - - - - - - - - - - - - - - - - - - - - - - - - - - - - - - - -
  Unit  Name          Flsize      Write/Read            MBytes           Write/Read
                      (MBytes)       Calls              In/Out           Time, sec.
  - - - - - - - - - - - - - - - - - - - - - - - - - - - - - - - - - - - - - - - - - - -
   1  SCRATCH           0.00 .       9/      45 .      0.0/      0.0 .       0/       0
   2  ANNI              0.00 .       0/       0 .      0.0/      0.0 .       0/       0
   3  RUNFILE          14.79 .     322/   10085 .      2.3/     73.1 .       0/       0
   4  ONEINT            5.45 .       0/   23543 .      0.0/   3734.6 .       0/       0
   5  JOBIPH            6.30 .       0/      92 .      0.0/      0.8 .       0/       0
   6  ORDINT          473.53 .       1/    3789 .      0.0/    947.0 .       0/       0
  - - - - - - - - - - - - - - - - - - - - - - - - - - - - - - - - - - - - - - - - - - -
   *  TOTAL           500.08 .     332/   37554 .      2.3/   4755.5 .       0/       0
  - - - - - - - - - - - - - - - - - - - - - - - - - - - - - - - - - - - - - - - - - - -
 
  II. I/O Access Patterns
  - - - - - - - - - - - - - - - - - - - -
  Unit  Name               % of random
                         Write/Read calls
  - - - - - - - - - - - - - - - - - - - -
   1  SCRATCH             88.9/ 100.0
   2  ANNI                 0.0/   0.0
   3  RUNFILE             28.6/  10.8
   4  ONEINT               0.0/  16.4
   5  JOBIPH               0.0/  76.1
   6  ORDINT             100.0/   0.1
  - - - - - - - - - - - - - - - - - - - -
--
--- Stop Module: rassi at Fri Jan 10 02:39:42 2025 /rc=_RC_ALL_IS_WELL_ ---
*** files: xmldump
    saved to directory /home4/s4752295/Internship/Initial_simulations/Point_charge_model/1_electron/active_space_9_non_rel/V/varying_bond_length
--- Module rassi spent 3 seconds ---

.##################.
.# Happy landing! #.
.##################.

    Timing: Wall=47.75 User=36.27 System=9.06

###############################################################################
Hbrk Cluster
Job 14556723 for user s4752295
Finished at: Fri Jan 10 02:39:42 CET 2025

Job details:
============

Job ID                         : 14556723
Name                           : V_no_c_light
User                           : s4752295
Partition                      : regularmedium
Nodes                          : node101
Number of Nodes                : 1
Cores                          : 1
Number of Tasks                : 1
State                          : RUNNING  
Submit                         : 2025-01-10T02:38:49
Start                          : 2025-01-10T02:38:50
End                            : --
Reserved walltime              : 15:00:00
Used walltime                  : 00:00:52
Used CPU time                  : -- 
% User (Computation)           : --
% System (I/O)                 : --
Total memory reserved          : 25000M
Maximum memory used            : --

Acknowledgements:
=================

Please see this page for information about acknowledging Hbrk in your publications:

https://wiki.hpc.rug.nl/habrok/introduction/scientific_output

################################################################################
