   This run of MOLCAS is using the pymolcas driver

                             OPE
                             OPE          NMOL  CASOP  ENMOLC A   SO
                 OPE        NMOLC        AS  OP EN  MO LC     AS  OP
                OPENM       OL CA        SO  PE NM  OL CA     SOP EN
                OP EN      MO   LC       AS  OP ENMOL  CASO   PENMOL
                OP  EN     MO   LC       AS  OP EN     MO     LC ASO
               OP   E  NMOL  C  AS       OP  EN MO     LC     AS  OP
               OP  E   NMO   LC AS        OPEN  MO     LCASOP EN   M
               O  PEN   MO  LCA  SO
            OPE   NMO   L   CAS    OP
        OPENMOL  CASOP     ENMOL   CASOPE
     OPENMOLCA   SOPENMOLCASOPEN   MOLCASOPE
    OPENMOLCAS   OP           EN   MOL    CAS
    OPENMOLCAS       OP  ENM        O     LCA
    OPENMOLCAS    OPEN  MOLCASO     P  E  NMO
    OPENMOLCAS     OP               E  N  MOL
    OPENMOLCA   SO           PENM   O  L  CAS    OPEN    MO    LCAS
    OPENMOLCA   SOP           ENM   O  L  CAS   OP  EN  MOLC  AS   O
    OPENMOLCA   SOPE           NM      O  LCA   S      OP  EN MO
    OPENMOLC                AS         O  PEN   M      OL  CA  SOPE
    OPENMO        LCASOPE  NMOL        C  ASO   P      ENMOLC     AS
    OPE     NMO      LCA  SO     P     E   NM   OL  CA SO  PE N   MO
          OPENMOLCA            SOPE   NMO        LCAS  O    P  ENMO
     OPENMOLCASOPENMOLCASOPENMOLCASOPENMOLCA
        OPENMOLCASOPENMOLCASOPENMOLCASOPE
            OPENMOLCASOPENMOLCASOPENM
               OPENMOLCASOPENMOLCA        version: o91e1abe7de707b ?
                   OPENMOLCASO
                       OPE                tag:

 OpenMolcas is free software; you can redistribute it and/or modify it
 under the terms of the GNU Lesser General Public License version 2.1.
 OpenMolcas is distributed in the hope that it will be useful, but it
 is provided "as is" and without any express or implied warranties.
 For more details see the full text of the license in the file
 LICENSE or in <http://www.gnu.org/licenses/>.

                 Copyright (C) The OpenMolcas Authors
           For the author list and the recommended citation,
                   consult the file CONTRIBUTORS.md

           *************************************************
           * pymolcas version py2.10                       *
           *   build 3068ae8b88c9345ec6cfef6fef7f1169      *
           *   (after the EMIL interpreter by V. Veryazov) *
           *************************************************

configuration info
------------------
Host name: login1 (Linux)
C Compiler ID: GNU
C flags: -std=gnu99
Fortran Compiler ID: GNU
Fortran flags: -fno-aggressive-loop-optimizations -cpp -fdefault-integer-8 -fmax-stack-var-size=1048576
Definitions: _MOLCAS_;_I8_;_LINUX_;_MKL_
Parallel: OFF (GA=OFF)


   ---------------------------------------------------------------------------------------------------------------------------------------------
  |
  |           Project: vanadium_so_cf
  |    Submitted from: /home4/s4752295/Internship/Initial_simulations/Point_charge_model/1_electron/active_space_9_non_rel/V/varying_bond_length
  |      Scratch area: /tmp/vanadium_so_cf
  |   Save outputs to: /home4/s4752295/Internship/Initial_simulations/Point_charge_model/1_electron/active_space_9_non_rel/V/varying_bond_length
  |            Molcas: /home4/s4752295/Internship/Molcas/recomp_try/OpenMolcas-master/build
  |
  | Scratch area is empty
  |
  |    MOLCAS_DRIVER = /home4/s4752295/Internship/Molcas/bin/pymolcas
  |    MOLCAS_NPROCS = 1
  |    MOLCAS_SOURCE = /home4/s4752295/Internship/Molcas/recomp_try/OpenMolcas-master
  | MOLCAS_STRUCTURE = 0
  |
   ---------------------------------------------------------------------------------------------------------------------------------------------

++ ---------   Input file   ---------

&SEWARD
AMFi

CLIG
$R

Basis Set
V.ANO-rcc.Roos.21s15p10d6f4g2h.10s9p8d6f4g2h.
Spherical d
V            0.0        0.0     0.0
End of Basis

Xfield

4
0.000000,  0.0000,  0.378       -1.0
0.327358,  0.0000, -0.189       -1.0
-0.163679,  0.2835, -0.189      -1.0
-0.163679, -0.2835, -0.189      -1.0

End of input

&SCF
Occupied
9
Iterations
   50  100
End of Input

&RASSCF
LumOrb
Symmetry
1
Spin
2
Nactel
1 0 0
CIRoot
9 9 1
inactive
9
ras2
9
End of Input

>>> COPY vanadium_so_cf.JobIph $SLURM_SUBMIT_DIR/vanadium_so_cf.doublet.JobIph

>>> COPY $SLURM_SUBMIT_DIR/vanadium_so_cf.doublet.JobIph ./JOB002

&RASSI
NROFJobIph
1 All
SpinOrbit
End of Input

EOF

-- ----------------------------------

--- Start Module: seward at Thu Jan  9 20:22:50 2025 ---

()()()()()()()()()()()()()()()()()()()()()()()()()()()()()()()()()()()()()()()()()()()()()()()()()()

                                              &SEWARD

                                   only a single process is used
                       available to each process: 4.1 GB of memory, 1 thread?
                                            pid: 1280950
()()()()()()()()()()()()()()()()()()()()()()()()()()()()()()()()()()()()()()()()()()()()()()()()()()

 The speed of LIGHT in this CALCULATION =   137.03599917700001     
               SEWARD will generate:
                  Multipole Moment integrals up to order  2
                  Kinetic Energy integrals
                  Nuclear Attraction integrals (point charge)
                  One-Electron Hamiltonian integrals
                  Velocity integrals
                  Relativistic Douglas-Kroll-Hess integrals:
                    - Parametrization         : EXP
                    - DKH order of Hamiltonian: 2
                    - DKH order of Properties : 0
                         - multipole moment operators
                         - electric potential operators
                         - contact operators
                  External field from     4 point(s) added to the one-electron Hamiltonian
                  Orbital angular momentum around ( 0.0000  0.0000  0.0000 )
                  Velocity quadrupole around ( 0.0000  0.0000  0.0000 )
                  Atomic mean-field integrals
                  Two-Electron Repulsion integrals

                   Integrals are discarded if absolute value <: 0.10E-13
                   Integral cutoff threshold is set to       <: 0.10E-15

++    Symmetry information:
      ---------------------

                    Character Table for C1 

                             E  
                    a        1  x, y, xy, Rz, z, xz, Ry, yz, Rx, I
--


++    Basis set information:
      ----------------------


      Basis set label: V.ANO-RCC.ROOS.21S15P10D6F4G2H.10S9P8D6F4G2H......

      Electronic valence basis set:
      ------------------
      Associated Effective Charge  23.000000 au
      Associated Actual Charge     23.000000 au
      Nuclear Model: Point charge

      Shell  nPrim  nBasis  Cartesian Spherical Contaminant
         s      21      10        X                  
         p      15       9        X                  
         d      10       8                 X         
         f       6       6                 X         
         g       4       4                 X         
         h       2       2                 X         
--


++    Molecular structure info:
      -------------------------

                    ************************************************ 
                    **** Cartesian Coordinates / Bohr, Angstrom **** 
                    ************************************************ 

     Center  Label                x              y              z                     x              y              z
        1      V                0.000000       0.000000       0.000000              0.000000       0.000000       0.000000
--


++    Operator info:
      --------------


  Net charge from external field:   -4.0000000000000000     
--


            Nuclear Potential Energy              0.00000000 au

                    Nuclear-External Field Potential Energy    -243.38616029 au
                    External Field Potential Energy               9.87314638 au 


            Total Nuclear Potential Energy           -243.38616029 au


      Basis set specifications :
      Symmetry species         a  
      Basis functions          177

 Sorry, Molden does not know how to handle
 functions with angular momentum larger than g
Note: The following floating-point exceptions are signalling: IEEE_UNDERFLOW_FLAG IEEE_DENORMAL
--- Stop Module: seward at Thu Jan  9 20:22:58 2025 /rc=_RC_ALL_IS_WELL_ ---
*** files: vanadium_so_cf.GssOrb xmldump
    saved to directory /home4/s4752295/Internship/Initial_simulations/Point_charge_model/1_electron/active_space_9_non_rel/V/varying_bond_length
--- Module seward spent 7 seconds ---

*** symbolic link created: INPORB -> vanadium_so_cf.GssOrb
--- Start Module: scf at Thu Jan  9 20:22:58 2025 ---

()()()()()()()()()()()()()()()()()()()()()()()()()()()()()()()()()()()()()()()()()()()()()()()()()()

                                                &SCF

                                   only a single process is used
                       available to each process: 4.1 GB of memory, 1 thread?
                                            pid: 1280954
()()()()()()()()()()()()()()()()()()()()()()()()()()()()()()()()()()()()()()()()()()()()()()()()()()

++    Input section:
      --------------

      Header of the integral files:
      
       Integrals generated by seward 4.2.0  , Thu Jan  9 20:22:50 2025


      Cartesian coordinates in Angstrom:
      -----------------------------------------------------
      No.  Label        X            Y            Z        
      -----------------------------------------------------
       1   V          0.00000000   0.00000000   0.00000000
      -----------------------------------------------------
      Nuclear repulsion energy = -243.38616029
--

++    Orbital specifications:
      -----------------------

      Symmetry species               1
                                     a
      Frozen orbitals                0
      Occupied orbitals              9
      Secondary orbitals           168
      Deleted orbitals               0
      Total number of orbitals     177
      Number of basis functions    177
--

      Molecular charge                           5.000

++    Optimization specifications:
      ----------------------------

      SCF Algorithm: Conventional
      Minimized density differences are used
      Number of density matrices in core                5
      Maximum number of NDDO SCF iterations            50
      Maximum number of HF SCF iterations             100
      Threshold for SCF energy change            0.10E-08
      Threshold for density matrix               0.10E-03
      Threshold for Fock matrix                  0.15E-03
      Threshold for linear dependence            0.10E-08
      Threshold at which DIIS is turned on       0.15E+00
      Threshold at which QNR/C2DIIS is turned on 0.75E-01
      Threshold for Norm(delta) (QNR/C2DIIS)     0.20E-04
      DIIS extrapolation of the SCF procedure
      All orbitals punched on: SCFORB
--

      Detected guessorb starting orbitals                                             


++ Convergence information
                                   SCF        iterations: Energy and convergence statistics

Iter     Tot. SCF        One-elec.       Two-elec.     Energy      Max Dij or  Max Fij      DNorm      TNorm      AccCon     Time
         Energy          Energy          Energy        Change      Delta Norm                                                in Sec.

 The total and one-electron energies are shifted by a value of      1000. a.u.

   1   -46.043394702   -92.137002020   289.479767612   0.00E+00    0.45E+00*   0.97E+00*    0.60E+01   0.22E+03   None         1.
   2   -48.667821967   -60.432022997   255.150361325  -0.26E+01*   0.15E+00*   0.21E+00*    0.28E+01   0.21E+03   EDIIS        1.
   3   -48.842083984   -70.013912468   264.557988778  -0.17E+00*   0.34E-01*   0.56E-01*    0.34E+00   0.21E+03   EDIIS        1.
   4   -48.852377682   -67.819838996   262.353621608  -0.10E-01*   0.76E-02*   0.14E-01*    0.41E-01   0.21E+03   EDIIS        1.
   5   -48.852945561   -68.352411500   262.885626233  -0.57E-03*   0.75E-03*   0.29E-02*    0.60E-02   0.21E+03   c2DIIS       1.
   6   -48.852979116   -68.254704810   262.787885988  -0.34E-04*   0.31E-03*   0.21E-03*    0.10E-02   0.21E+03   QNRc2DIIS    1.
   7   -48.852979588   -68.253552325   262.786733030  -0.47E-06*   0.17E-03*   0.85E-04     0.14E-03   0.21E+03   QNRc2DIIS    1.
   8   -48.852979654   -68.254219346   262.787399985  -0.66E-07*   0.10E-04    0.75E-05     0.25E-04   0.21E+03   QNRc2DIIS    1.
   9   -48.852979655   -68.253944006   262.787124646  -0.34E-09    0.17E-05    0.24E-05     0.10E-03   0.21E+03   QNRc2DIIS    1.

       Convergence after  9 Macro Iterations
--

 *****************************************************************************************************************************
 *                                                                                                                           *
 *                                             SCF/KS-DFT Program, Final results                                             *
 *                                                                                                                           *
 *                                                                                                                           *
 *                                                                                                                           *
 *                                                       Final Results                                                       *
 *                                                                                                                           *
 *****************************************************************************************************************************

::    Total SCF energy                              -1048.8529796545
      One-electron energy                           -1068.2539440065
      Two-electron energy                             262.7871246460
      Nuclear repulsion energy                       -243.3861602940
      Kinetic energy (interpolated)                   924.8458258686
      Virial theorem                                    1.1340841363
      Total spin, S(S+1)                                0.0000000000
      Total spin, S                                     0.0000000000
      Max non-diagonal density matrix element           0.0000011126
      Max non-diagonal Fock matrix element              0.0000002546


      All orbitals with orbital energies smaller than  E(LUMO)+0.5 are printed

++    Molecular orbitals:
      -------------------

      Title: SCF orbitals

      Molecular orbitals for symmetry species 1: a  

          Orbital            1         2         3         4         5         6         7         8         9        10    
          Energy         -198.8030  -19.7340  -15.7466  -15.7466  -15.2732   -2.2906   -1.2713   -1.2713   -1.2031   -0.1584
          Occ. No.          2.0000    2.0000    2.0000    2.0000    2.0000    2.0000    2.0000    2.0000    2.0000    0.0000

        1 V      1s         1.0000    0.0005   -0.0000   -0.0000   -0.0005   -0.0002   -0.0000    0.0000    0.0001    0.0000
        2 V      2s        -0.0005    0.9951   -0.0000   -0.0000   -0.0906   -0.0238   -0.0000    0.0000    0.0014    0.0040
        3 V      3s         0.0002    0.0275    0.0000   -0.0000   -0.0051    0.9731    0.0000   -0.0000   -0.0619   -0.0625
        4 V      4s        -0.0000   -0.0049    0.0000    0.0000    0.0008    0.1095    0.0000   -0.0000   -0.0297    0.9384
        5 V      5s         0.0001    0.0055    0.0000   -0.0000   -0.0009   -0.1014   -0.0000    0.0000    0.0220    0.3198
        6 V      6s        -0.0002   -0.0145    0.0000    0.0000    0.0021    0.1550    0.0000   -0.0000   -0.0246   -0.0718
        7 V      7s         0.0002    0.0081   -0.0000   -0.0000   -0.0009   -0.0211   -0.0000    0.0000   -0.0015   -0.0607
        8 V      8s        -0.0002   -0.0050   -0.0000    0.0000    0.0000   -0.0000   -0.0000   -0.0000    0.0008   -0.0270
        9 V      9s         0.0001   -0.0003   -0.0000   -0.0000    0.0006   -0.0086   -0.0000    0.0000    0.0021   -0.0185
       10 V     10s        -0.0002    0.0036   -0.0000    0.0000   -0.0016    0.0002   -0.0000   -0.0000    0.0005   -0.0053
       11 V      2px        0.0000    0.0000   -0.0000    0.9988    0.0000    0.0000    0.0000   -0.0233   -0.0000   -0.0000
       12 V      3px       -0.0000   -0.0000   -0.0000    0.0285    0.0000    0.0000   -0.0000    0.9589    0.0000    0.0000
       13 V      4px        0.0000    0.0000    0.0000   -0.0066   -0.0000   -0.0000   -0.0000    0.1794    0.0000    0.0000
       14 V      5px       -0.0000   -0.0000   -0.0000    0.0167    0.0000    0.0000    0.0000   -0.2113   -0.0000    0.0000
       15 V      6px        0.0000    0.0000    0.0000   -0.0084   -0.0000   -0.0000   -0.0000    0.0130    0.0000    0.0000
       16 V      7px       -0.0000   -0.0000   -0.0000    0.0059    0.0000    0.0000   -0.0000    0.0115    0.0000    0.0000
       17 V      8px        0.0000   -0.0000    0.0000   -0.0010   -0.0000   -0.0000   -0.0000    0.0112    0.0000   -0.0000
       18 V      9px       -0.0000    0.0000    0.0000   -0.0016   -0.0000    0.0000    0.0000   -0.0112   -0.0000   -0.0000
       19 V     10px        0.0000   -0.0000   -0.0000    0.0049    0.0000    0.0000    0.0000   -0.0051   -0.0000   -0.0000
       20 V      2py       -0.0000    0.0000    0.9988    0.0000   -0.0000   -0.0000   -0.0233   -0.0000   -0.0000   -0.0000
       21 V      3py       -0.0000   -0.0000    0.0285    0.0000   -0.0000   -0.0000    0.9589    0.0000    0.0000   -0.0000
       22 V      4py        0.0000   -0.0000   -0.0066   -0.0000   -0.0000   -0.0000    0.1794    0.0000    0.0000   -0.0000
       23 V      5py       -0.0000   -0.0000    0.0167    0.0000   -0.0000    0.0000   -0.2113   -0.0000   -0.0000   -0.0000
       24 V      6py        0.0000    0.0000   -0.0084   -0.0000    0.0000   -0.0000    0.0130    0.0000    0.0000   -0.0000
       25 V      7py       -0.0000   -0.0000    0.0059    0.0000   -0.0000    0.0000    0.0115    0.0000    0.0000   -0.0000
       26 V      8py        0.0000    0.0000   -0.0010   -0.0000   -0.0000   -0.0000    0.0112    0.0000    0.0000    0.0000
       27 V      9py       -0.0000   -0.0000   -0.0016   -0.0000   -0.0000   -0.0000   -0.0112   -0.0000   -0.0000    0.0000
       28 V     10py        0.0000    0.0000    0.0049    0.0000   -0.0000    0.0000   -0.0051   -0.0000   -0.0000    0.0000
       29 V      2pz        0.0004    0.0905    0.0000   -0.0000    0.9951    0.0001    0.0000   -0.0000   -0.0225   -0.0002
       30 V      3pz       -0.0001    0.0024    0.0000   -0.0000    0.0285    0.0731   -0.0000   -0.0000    0.9480    0.0064
       31 V      4pz        0.0000   -0.0007   -0.0000    0.0000   -0.0064   -0.0002   -0.0000   -0.0000    0.2031    0.0542
       32 V      5pz       -0.0001    0.0022    0.0000   -0.0000    0.0153   -0.0008    0.0000    0.0000   -0.2301    0.0086
       33 V      6pz        0.0001   -0.0015   -0.0000    0.0000   -0.0069    0.0009    0.0000   -0.0000    0.0100    0.0094
       34 V      7pz       -0.0001    0.0021    0.0000   -0.0000    0.0031   -0.0011    0.0000   -0.0000    0.0142    0.0021
       35 V      8pz        0.0001   -0.0015    0.0000   -0.0000    0.0014    0.0006   -0.0000   -0.0000    0.0125    0.0001
       36 V      9pz       -0.0001    0.0014   -0.0000    0.0000   -0.0042   -0.0004    0.0000    0.0000   -0.0122   -0.0004
       37 V     10pz        0.0001   -0.0014    0.0000   -0.0000    0.0078    0.0007    0.0000    0.0000   -0.0062   -0.0003
       38 V      3d2-       0.0000   -0.0000    0.0072    0.0000   -0.0000   -0.0000    0.0199    0.0000    0.0000   -0.0000
       39 V      4d2-      -0.0000    0.0000   -0.0066   -0.0000    0.0000   -0.0000   -0.0063   -0.0000   -0.0000   -0.0000
       40 V      5d2-       0.0000   -0.0000    0.0066    0.0000   -0.0000   -0.0000    0.0013    0.0000   -0.0000   -0.0000
       41 V      6d2-      -0.0000    0.0000   -0.0091   -0.0000    0.0000    0.0000    0.0008    0.0000   -0.0000   -0.0000
       42 V      7d2-       0.0000   -0.0000    0.0077    0.0000   -0.0000   -0.0000   -0.0010   -0.0000   -0.0000   -0.0000
       43 V      8d2-      -0.0000   -0.0000   -0.0046   -0.0000    0.0000    0.0000    0.0009    0.0000    0.0000   -0.0000
       44 V      9d2-       0.0000    0.0000    0.0022    0.0000   -0.0000   -0.0000   -0.0010   -0.0000   -0.0000   -0.0000
       45 V     10d2-      -0.0000   -0.0000    0.0005    0.0000    0.0000   -0.0000    0.0003    0.0000    0.0000   -0.0000
       46 V      3d1-      -0.0000   -0.0000    0.0114    0.0000   -0.0000   -0.0000    0.0423    0.0000    0.0000   -0.0000
       47 V      4d1-       0.0000   -0.0000   -0.0104   -0.0000    0.0000    0.0000   -0.0127   -0.0000   -0.0000   -0.0000
       48 V      5d1-      -0.0000   -0.0000    0.0104    0.0000   -0.0000   -0.0000    0.0018    0.0000    0.0000   -0.0000
       49 V      6d1-       0.0000   -0.0000   -0.0143   -0.0000    0.0000    0.0000    0.0025    0.0000    0.0000    0.0000
       50 V      7d1-      -0.0000    0.0000    0.0120    0.0000   -0.0000    0.0000   -0.0022   -0.0000   -0.0000    0.0000
       51 V      8d1-       0.0000   -0.0000   -0.0072   -0.0000    0.0000    0.0000    0.0017    0.0000    0.0000   -0.0000
       52 V      9d1-      -0.0000    0.0000    0.0035    0.0000   -0.0000    0.0000   -0.0016   -0.0000   -0.0000    0.0000
       53 V     10d1-       0.0000    0.0000   -0.0001   -0.0000   -0.0000   -0.0000    0.0006    0.0000    0.0000    0.0000
       54 V      3d0       -0.0000   -0.0052   -0.0000    0.0000   -0.0063   -0.0131   -0.0000    0.0000   -0.0047    0.0070
       55 V      4d0        0.0000    0.0048   -0.0000   -0.0000    0.0058    0.0063    0.0000   -0.0000    0.0024   -0.0008
       56 V      5d0       -0.0000   -0.0049    0.0000    0.0000   -0.0058   -0.0021    0.0000    0.0000   -0.0017   -0.0006
       57 V      6d0        0.0000    0.0069    0.0000   -0.0000    0.0081   -0.0012   -0.0000   -0.0000    0.0011    0.0001
       58 V      7d0       -0.0001   -0.0060   -0.0000    0.0000   -0.0068    0.0016   -0.0000    0.0000    0.0000   -0.0005
       59 V      8d0        0.0001    0.0036    0.0000   -0.0000    0.0039   -0.0011   -0.0000   -0.0000   -0.0002    0.0002
       60 V      9d0       -0.0001   -0.0017   -0.0000    0.0000   -0.0017    0.0011   -0.0000   -0.0000    0.0008   -0.0003
       61 V     10d0        0.0001   -0.0003   -0.0000    0.0000   -0.0014   -0.0003    0.0000   -0.0000   -0.0002    0.0000
       62 V      3d1+      -0.0000   -0.0000   -0.0000    0.0114    0.0000    0.0000   -0.0000    0.0423    0.0000   -0.0000
       63 V      4d1+       0.0000    0.0000    0.0000   -0.0104   -0.0000   -0.0000    0.0000   -0.0127   -0.0000    0.0000
       64 V      5d1+      -0.0000   -0.0000   -0.0000    0.0104    0.0000    0.0000   -0.0000    0.0018   -0.0000   -0.0000
       65 V      6d1+       0.0000    0.0000    0.0000   -0.0143   -0.0000   -0.0000   -0.0000    0.0025    0.0000    0.0000
       66 V      7d1+      -0.0000   -0.0000   -0.0000    0.0120    0.0000    0.0000    0.0000   -0.0022   -0.0000   -0.0000
       67 V      8d1+       0.0000    0.0000    0.0000   -0.0072   -0.0000   -0.0000   -0.0000    0.0017    0.0000    0.0000
       68 V      9d1+      -0.0000   -0.0000   -0.0000    0.0035    0.0000    0.0000    0.0000   -0.0016   -0.0000   -0.0000
       69 V     10d1+       0.0000    0.0000    0.0000   -0.0001   -0.0000   -0.0000   -0.0000    0.0006    0.0000    0.0000
       70 V      3d2+      -0.0000   -0.0000    0.0000   -0.0072   -0.0000   -0.0000    0.0000   -0.0199    0.0000    0.0000
       71 V      4d2+       0.0000    0.0000   -0.0000    0.0066    0.0000    0.0000   -0.0000    0.0063   -0.0000   -0.0000
       72 V      5d2+      -0.0000   -0.0000    0.0000   -0.0066   -0.0000   -0.0000    0.0000   -0.0013    0.0000   -0.0000
       73 V      6d2+       0.0000    0.0000   -0.0000    0.0091    0.0000   -0.0000    0.0000   -0.0008   -0.0000   -0.0000
       74 V      7d2+      -0.0000   -0.0000    0.0000   -0.0077   -0.0000    0.0000   -0.0000    0.0010    0.0000   -0.0000
       75 V      8d2+       0.0000    0.0000   -0.0000    0.0046    0.0000   -0.0000    0.0000   -0.0009    0.0000    0.0000
       76 V      9d2+      -0.0000   -0.0000    0.0000   -0.0022   -0.0000    0.0000   -0.0000    0.0010   -0.0000   -0.0000
       77 V     10d2+      -0.0000   -0.0000    0.0000   -0.0005    0.0000    0.0000    0.0000   -0.0003   -0.0000   -0.0000
       78 V      4f3-       0.0000    0.0000   -0.0000   -0.0000    0.0000   -0.0000   -0.0000   -0.0000   -0.0000    0.0000
       79 V      5f3-      -0.0000   -0.0000    0.0000    0.0000   -0.0000   -0.0000    0.0000    0.0000   -0.0000    0.0000
       80 V      6f3-       0.0000    0.0000   -0.0000   -0.0000   -0.0000    0.0000   -0.0000   -0.0000   -0.0000    0.0000
       81 V      7f3-      -0.0000   -0.0000    0.0000    0.0000    0.0000    0.0000    0.0000    0.0000   -0.0000   -0.0000
       82 V      8f3-       0.0000    0.0000   -0.0000   -0.0000    0.0000   -0.0000   -0.0000   -0.0000   -0.0000    0.0000
       83 V      9f3-      -0.0000   -0.0000    0.0000    0.0000    0.0000   -0.0000    0.0000   -0.0000   -0.0000   -0.0000
       84 V      4f2-       0.0000    0.0000   -0.0016   -0.0000    0.0000    0.0000   -0.0019   -0.0000   -0.0000   -0.0000
       85 V      5f2-      -0.0000   -0.0000    0.0017    0.0000   -0.0000   -0.0000    0.0011    0.0000    0.0000    0.0000
       86 V      6f2-       0.0000    0.0000   -0.0022   -0.0000    0.0000    0.0000   -0.0007   -0.0000   -0.0000   -0.0000
       87 V      7f2-      -0.0000    0.0000    0.0030    0.0000   -0.0000   -0.0000    0.0005    0.0000    0.0000    0.0000
       88 V      8f2-      -0.0000   -0.0000   -0.0040   -0.0000    0.0000   -0.0000   -0.0003   -0.0000    0.0000   -0.0000
       89 V      9f2-       0.0000    0.0000    0.0020    0.0000   -0.0000    0.0000    0.0001    0.0000    0.0000   -0.0000
       90 V      4f1-       0.0000    0.0000   -0.0010   -0.0000    0.0000   -0.0000   -0.0038   -0.0000   -0.0000    0.0000
       91 V      5f1-      -0.0000   -0.0000    0.0011    0.0000   -0.0000    0.0000    0.0015    0.0000    0.0000   -0.0000
       92 V      6f1-       0.0000    0.0000   -0.0013   -0.0000    0.0000   -0.0000   -0.0007   -0.0000    0.0000    0.0000
       93 V      7f1-      -0.0000   -0.0000    0.0017    0.0000   -0.0000    0.0000    0.0004    0.0000    0.0000   -0.0000
       94 V      8f1-       0.0000    0.0000   -0.0022   -0.0000    0.0000    0.0000   -0.0002   -0.0000   -0.0000   -0.0000
       95 V      9f1-      -0.0000   -0.0000    0.0011    0.0000   -0.0000   -0.0000    0.0000    0.0000   -0.0000   -0.0000
       96 V      4f0       -0.0000   -0.0039   -0.0000    0.0000   -0.0011   -0.0089    0.0000   -0.0000   -0.0048    0.0019
       97 V      5f0        0.0000    0.0044    0.0000   -0.0000    0.0012    0.0049   -0.0000    0.0000    0.0019   -0.0007
       98 V      6f0       -0.0000   -0.0055   -0.0000    0.0000   -0.0014   -0.0028    0.0000   -0.0000   -0.0008    0.0008
       99 V      7f0        0.0000    0.0074    0.0000   -0.0000    0.0018    0.0014   -0.0000    0.0000    0.0005   -0.0003
      100 V      8f0       -0.0001   -0.0099   -0.0000    0.0000   -0.0024   -0.0005    0.0000   -0.0000   -0.0004    0.0002
      101 V      9f0        0.0000    0.0048    0.0000   -0.0000    0.0012   -0.0001    0.0000    0.0000    0.0001    0.0000
      102 V      4f1+       0.0000    0.0000    0.0000   -0.0010   -0.0000    0.0000    0.0000   -0.0038   -0.0000   -0.0000
      103 V      5f1+      -0.0000   -0.0000   -0.0000    0.0011    0.0000   -0.0000   -0.0000    0.0015    0.0000    0.0000
      104 V      6f1+       0.0000    0.0000    0.0000   -0.0013   -0.0000    0.0000    0.0000   -0.0007   -0.0000   -0.0000
      105 V      7f1+      -0.0000   -0.0000   -0.0000    0.0017    0.0000   -0.0000   -0.0000    0.0004    0.0000   -0.0000
      106 V      8f1+       0.0000    0.0000    0.0000   -0.0022   -0.0000   -0.0000    0.0000   -0.0002   -0.0000    0.0000
      107 V      9f1+      -0.0000   -0.0000   -0.0000    0.0011    0.0000    0.0000   -0.0000    0.0000   -0.0000   -0.0000
      108 V      4f2+       0.0000    0.0000   -0.0000    0.0016   -0.0000    0.0000   -0.0000    0.0019   -0.0000   -0.0000
      109 V      5f2+      -0.0000   -0.0000    0.0000   -0.0017    0.0000   -0.0000    0.0000   -0.0011    0.0000    0.0000
      110 V      6f2+       0.0000    0.0000   -0.0000    0.0022   -0.0000    0.0000   -0.0000    0.0007   -0.0000   -0.0000
      111 V      7f2+       0.0000   -0.0000    0.0000   -0.0030   -0.0000   -0.0000    0.0000   -0.0005    0.0000    0.0000
      112 V      8f2+      -0.0000    0.0000   -0.0000    0.0040    0.0000    0.0000   -0.0000    0.0003   -0.0000   -0.0000
      113 V      9f2+       0.0000   -0.0000    0.0000   -0.0020   -0.0000   -0.0000    0.0000   -0.0001    0.0000    0.0000
      114 V      4f3+      -0.0000   -0.0025    0.0000   -0.0000    0.0017   -0.0056    0.0000   -0.0000    0.0024    0.0013
      115 V      5f3+       0.0000    0.0027   -0.0000    0.0000   -0.0019    0.0031   -0.0000    0.0000   -0.0013   -0.0004
      116 V      6f3+      -0.0000   -0.0035    0.0000   -0.0000    0.0024   -0.0018   -0.0000   -0.0000    0.0008    0.0006
      117 V      7f3+       0.0000    0.0046   -0.0000    0.0000   -0.0031    0.0008   -0.0000    0.0000   -0.0005   -0.0002
      118 V      8f3+      -0.0000   -0.0062    0.0000   -0.0000    0.0042   -0.0003    0.0000   -0.0000    0.0004    0.0001
      119 V      9f3+       0.0000    0.0030   -0.0000    0.0000   -0.0021   -0.0001    0.0000    0.0000   -0.0001    0.0000
      120 V      5g4-       0.0000    0.0000   -0.0010   -0.0000    0.0000    0.0000   -0.0023   -0.0000   -0.0000   -0.0000
      121 V      6g4-      -0.0000   -0.0000    0.0011    0.0000   -0.0000   -0.0000    0.0011    0.0000    0.0000   -0.0000
      122 V      7g4-       0.0000   -0.0000   -0.0013   -0.0000    0.0000    0.0000   -0.0009   -0.0000   -0.0000    0.0000
      123 V      8g4-      -0.0000    0.0000    0.0008    0.0000   -0.0000   -0.0000    0.0005    0.0000    0.0000   -0.0000
      124 V      5g3-      -0.0000   -0.0000    0.0000    0.0000    0.0000   -0.0000    0.0000    0.0000    0.0000   -0.0000
      125 V      6g3-       0.0000    0.0000   -0.0000   -0.0000   -0.0000    0.0000   -0.0000   -0.0000   -0.0000    0.0000
      126 V      7g3-      -0.0000   -0.0000    0.0000    0.0000    0.0000   -0.0000    0.0000    0.0000    0.0000   -0.0000
      127 V      8g3-       0.0000    0.0000   -0.0000   -0.0000   -0.0000    0.0000   -0.0000   -0.0000   -0.0000    0.0000
      128 V      5g2-      -0.0000    0.0000    0.0001    0.0000   -0.0000    0.0000   -0.0002   -0.0000   -0.0000    0.0000
      129 V      6g2-       0.0000    0.0000   -0.0001   -0.0000    0.0000   -0.0000    0.0001    0.0000   -0.0000   -0.0000
      130 V      7g2-      -0.0000   -0.0000    0.0002    0.0000   -0.0000    0.0000   -0.0000   -0.0000    0.0000    0.0000
      131 V      8g2-       0.0000    0.0000   -0.0001   -0.0000    0.0000   -0.0000    0.0000    0.0000   -0.0000   -0.0000
      132 V      5g1-      -0.0000    0.0000   -0.0012   -0.0000    0.0000    0.0000   -0.0029   -0.0000   -0.0000    0.0000
      133 V      6g1-       0.0000    0.0000    0.0014    0.0000   -0.0000    0.0000    0.0015    0.0000    0.0000    0.0000
      134 V      7g1-      -0.0000   -0.0000   -0.0016   -0.0000    0.0000   -0.0000   -0.0011   -0.0000   -0.0000   -0.0000
      135 V      8g1-       0.0000    0.0000    0.0009    0.0000   -0.0000    0.0000    0.0007    0.0000    0.0000   -0.0000
      136 V      5g0       -0.0000   -0.0002    0.0000    0.0000   -0.0020   -0.0004   -0.0000    0.0000   -0.0039    0.0000
      137 V      6g0        0.0000    0.0003   -0.0000   -0.0000    0.0023    0.0003   -0.0000   -0.0000    0.0020   -0.0000
      138 V      7g0       -0.0000   -0.0003   -0.0000    0.0000   -0.0027   -0.0002   -0.0000    0.0000   -0.0016    0.0000
      139 V      8g0        0.0000    0.0002    0.0000   -0.0000    0.0016    0.0001   -0.0000   -0.0000    0.0009   -0.0000
      140 V      5g1+       0.0000   -0.0000    0.0000   -0.0012   -0.0000   -0.0000    0.0000   -0.0029    0.0000    0.0000
      141 V      6g1+      -0.0000    0.0000   -0.0000    0.0014    0.0000    0.0000   -0.0000    0.0015   -0.0000   -0.0000
      142 V      7g1+       0.0000   -0.0000    0.0000   -0.0016   -0.0000   -0.0000    0.0000   -0.0011    0.0000    0.0000
      143 V      8g1+      -0.0000    0.0000   -0.0000    0.0009    0.0000    0.0000   -0.0000    0.0007   -0.0000   -0.0000
      144 V      5g2+       0.0000    0.0000    0.0000   -0.0001    0.0000   -0.0000   -0.0000    0.0002    0.0000   -0.0000
      145 V      6g2+      -0.0000   -0.0000   -0.0000    0.0001   -0.0000    0.0000    0.0000   -0.0001   -0.0000   -0.0000
      146 V      7g2+       0.0000    0.0000    0.0000   -0.0002    0.0000   -0.0000   -0.0000    0.0000    0.0000   -0.0000
      147 V      8g2+      -0.0000   -0.0000   -0.0000    0.0001   -0.0000    0.0000    0.0000   -0.0000   -0.0000   -0.0000
      148 V      5g3+       0.0000    0.0011   -0.0000    0.0000   -0.0012    0.0015    0.0000    0.0000   -0.0021   -0.0003
      149 V      6g3+      -0.0000   -0.0013    0.0000   -0.0000    0.0015   -0.0010   -0.0000   -0.0000    0.0011    0.0002
      150 V      7g3+       0.0000    0.0015   -0.0000    0.0000   -0.0017    0.0008    0.0000    0.0000   -0.0009   -0.0002
      151 V      8g3+      -0.0000   -0.0009    0.0000   -0.0000    0.0010   -0.0004   -0.0000   -0.0000    0.0005    0.0001
      152 V      5g4+       0.0000    0.0000    0.0000   -0.0010   -0.0000   -0.0000    0.0000   -0.0023   -0.0000    0.0000
      153 V      6g4+      -0.0000   -0.0000   -0.0000    0.0011    0.0000    0.0000   -0.0000    0.0011    0.0000   -0.0000
      154 V      7g4+       0.0000    0.0000    0.0000   -0.0013   -0.0000   -0.0000    0.0000   -0.0009   -0.0000    0.0000
      155 V      8g4+      -0.0000   -0.0000   -0.0000    0.0008    0.0000    0.0000   -0.0000    0.0005    0.0000   -0.0000
      156 V      6h5-      -0.0000   -0.0000    0.0000    0.0000   -0.0000    0.0000    0.0000    0.0000   -0.0000   -0.0000
      157 V      7h5-       0.0000   -0.0000   -0.0000   -0.0000   -0.0000   -0.0000   -0.0000   -0.0000   -0.0000    0.0000
      158 V      6h4-      -0.0000    0.0000    0.0002    0.0000   -0.0000   -0.0000    0.0005    0.0000    0.0000   -0.0000
      159 V      7h4-       0.0000    0.0000   -0.0001   -0.0000    0.0000    0.0000   -0.0002   -0.0000   -0.0000   -0.0000
      160 V      6h3-      -0.0000   -0.0000   -0.0000    0.0000   -0.0000   -0.0000   -0.0000   -0.0000   -0.0000   -0.0000
      161 V      7h3-       0.0000   -0.0000    0.0000   -0.0000   -0.0000   -0.0000    0.0000   -0.0000   -0.0000    0.0000
      162 V      6h2-      -0.0000    0.0000    0.0000    0.0000   -0.0000   -0.0000    0.0001    0.0000    0.0000    0.0000
      163 V      7h2-       0.0000    0.0000   -0.0000   -0.0000    0.0000   -0.0000   -0.0001   -0.0000   -0.0000    0.0000
      164 V      6h1-       0.0000    0.0000    0.0000    0.0000    0.0000    0.0000   -0.0000   -0.0000   -0.0000   -0.0000
      165 V      7h1-      -0.0000   -0.0000   -0.0000   -0.0000   -0.0000   -0.0000    0.0000    0.0000   -0.0000    0.0000
      166 V      6h0       -0.0000   -0.0001   -0.0000    0.0000   -0.0001   -0.0001    0.0000    0.0000   -0.0001    0.0000
      167 V      7h0        0.0000    0.0000    0.0000   -0.0000    0.0001    0.0001   -0.0000   -0.0000    0.0001   -0.0000
      168 V      6h1+      -0.0000    0.0000   -0.0000    0.0000   -0.0000    0.0000    0.0000   -0.0000   -0.0000   -0.0000
      169 V      7h1+       0.0000   -0.0000    0.0000   -0.0000    0.0000   -0.0000   -0.0000    0.0000    0.0000    0.0000
      170 V      6h2+      -0.0000   -0.0000    0.0000   -0.0000   -0.0000   -0.0000    0.0000   -0.0001   -0.0000    0.0000
      171 V      7h2+       0.0000    0.0000   -0.0000    0.0000    0.0000    0.0000   -0.0000    0.0001    0.0000   -0.0000
      172 V      6h3+      -0.0000   -0.0001    0.0000   -0.0000    0.0002   -0.0001   -0.0000   -0.0000    0.0005    0.0000
      173 V      7h3+       0.0000    0.0000    0.0000    0.0000   -0.0001    0.0001   -0.0000    0.0000   -0.0002   -0.0000
      174 V      6h4+      -0.0000   -0.0000   -0.0000    0.0002    0.0000    0.0000   -0.0000    0.0005    0.0000    0.0000
      175 V      7h4+       0.0000    0.0000    0.0000   -0.0001   -0.0000   -0.0000    0.0000   -0.0002   -0.0000    0.0000
      176 V      6h5+      -0.0000   -0.0000    0.0000   -0.0000    0.0000   -0.0000    0.0000   -0.0000    0.0000    0.0000
      177 V      7h5+       0.0000    0.0000   -0.0000    0.0000   -0.0000    0.0000   -0.0000    0.0000   -0.0000   -0.0000

          Orbital           11        12        13        14        15        16        17        18        19        20    
          Energy           -0.0984   -0.0984   -0.0968   -0.0609   -0.0299   -0.0299   -0.0293   -0.0293   -0.0292   -0.0121
          Occ. No.          0.0000    0.0000    0.0000    0.0000    0.0000    0.0000    0.0000    0.0000    0.0000    0.0000

        1 V      1s         0.0000   -0.0000   -0.0000   -0.0000   -0.0000    0.0000   -0.0000    0.0000   -0.0000    0.0000
        2 V      2s         0.0000   -0.0000   -0.0001   -0.0024   -0.0000    0.0000   -0.0000   -0.0000    0.0002    0.0000
        3 V      3s        -0.0000    0.0000    0.0049    0.0375   -0.0000    0.0000   -0.0000   -0.0000    0.0012   -0.0000
        4 V      4s         0.0000   -0.0000   -0.0354   -0.1748    0.0000   -0.0000    0.0000    0.0000   -0.0008    0.0000
        5 V      5s         0.0000   -0.0000   -0.0455    0.7247   -0.0000    0.0000   -0.0000   -0.0000    0.0014    0.0000
        6 V      6s         0.0000   -0.0000   -0.0047    0.4314   -0.0000    0.0000   -0.0000   -0.0000    0.0051   -0.0000
        7 V      7s         0.0000   -0.0000   -0.0041    0.4317   -0.0000    0.0000   -0.0000   -0.0000    0.0063   -0.0000
        8 V      8s         0.0000   -0.0000   -0.0010    0.1899   -0.0000    0.0000   -0.0000   -0.0000    0.0034   -0.0000
        9 V      9s         0.0000   -0.0000   -0.0005    0.1709   -0.0000    0.0000   -0.0000   -0.0000    0.0037   -0.0000
       10 V     10s         0.0000    0.0000   -0.0001    0.0499   -0.0000    0.0000   -0.0000   -0.0000    0.0012   -0.0000
       11 V      2px       -0.0000    0.0029    0.0000    0.0000   -0.0000    0.0003    0.0000   -0.0007   -0.0000   -0.0000
       12 V      3px        0.0000   -0.0577   -0.0000   -0.0000   -0.0000    0.0000    0.0000   -0.0041   -0.0000    0.0000
       13 V      4px       -0.0000    0.7426    0.0000   -0.0000   -0.0000    0.0060    0.0000   -0.0143   -0.0000   -0.0000
       14 V      5px       -0.0000    0.4095    0.0000    0.0000    0.0000   -0.0032   -0.0000    0.0037    0.0000   -0.0000
       15 V      6px       -0.0000    0.4704    0.0000    0.0000    0.0000   -0.0111   -0.0000    0.0085    0.0000    0.0000
       16 V      7px       -0.0000    0.1888    0.0000    0.0000    0.0000   -0.0098   -0.0000    0.0071    0.0000    0.0000
       17 V      8px       -0.0000    0.1355    0.0000    0.0000    0.0000   -0.0109   -0.0000    0.0077    0.0000    0.0000
       18 V      9px       -0.0000    0.0453    0.0000    0.0000    0.0000   -0.0048   -0.0000    0.0035    0.0000    0.0000
       19 V     10px       -0.0000    0.0058    0.0000    0.0000    0.0000   -0.0008   -0.0000    0.0006    0.0000    0.0000
       20 V      2py        0.0029    0.0000    0.0000   -0.0000   -0.0003   -0.0000   -0.0007   -0.0000   -0.0000   -0.0036
       21 V      3py       -0.0577   -0.0000   -0.0000    0.0000   -0.0000   -0.0000   -0.0041   -0.0000   -0.0000    0.0691
       22 V      4py        0.7426    0.0000    0.0000    0.0000   -0.0060   -0.0000   -0.0143   -0.0000   -0.0000   -0.4749
       23 V      5py        0.4095    0.0000    0.0000   -0.0000    0.0032    0.0000    0.0037    0.0000    0.0000   -0.0207
       24 V      6py        0.4704    0.0000    0.0000   -0.0000    0.0111    0.0000    0.0085    0.0000    0.0000    0.4011
       25 V      7py        0.1888    0.0000    0.0000   -0.0000    0.0098    0.0000    0.0071    0.0000    0.0000    0.4660
       26 V      8py        0.1355    0.0000    0.0000   -0.0000    0.0109    0.0000    0.0077    0.0000    0.0000    0.5660
       27 V      9py        0.0453    0.0000    0.0000   -0.0000    0.0048    0.0000    0.0035    0.0000    0.0000    0.2594
       28 V     10py        0.0058    0.0000    0.0000   -0.0000    0.0008    0.0000    0.0006    0.0000    0.0000    0.0489
       29 V      2pz       -0.0000   -0.0000    0.0028    0.0002   -0.0000    0.0000   -0.0000   -0.0000    0.0005   -0.0000
       30 V      3pz        0.0000    0.0000   -0.0633   -0.0042    0.0000   -0.0000    0.0000    0.0000   -0.0021    0.0000
       31 V      4pz       -0.0000   -0.0000    0.7254   -0.0024    0.0000   -0.0000    0.0000   -0.0000    0.0094   -0.0000
       32 V      5pz       -0.0000   -0.0000    0.4164    0.0192    0.0000   -0.0000    0.0000    0.0000   -0.0067   -0.0000
       33 V      6pz       -0.0000   -0.0000    0.4811    0.0341    0.0000   -0.0000    0.0000    0.0000   -0.0262    0.0000
       34 V      7pz       -0.0000   -0.0000    0.1960    0.0221    0.0000   -0.0000    0.0000    0.0000   -0.0237    0.0000
       35 V      8pz       -0.0000   -0.0000    0.1428    0.0219    0.0000   -0.0000    0.0000    0.0000   -0.0264    0.0000
       36 V      9pz       -0.0000   -0.0000    0.0484    0.0090    0.0000   -0.0000    0.0000    0.0000   -0.0117    0.0000
       37 V     10pz       -0.0000   -0.0000    0.0064    0.0016    0.0000   -0.0000    0.0000    0.0000   -0.0021    0.0000
       38 V      3d2-      -0.0070   -0.0000   -0.0000    0.0000    0.3083    0.0000    0.0681    0.0000    0.0000    0.0015
       39 V      4d2-      -0.0026   -0.0000   -0.0000   -0.0000    0.6085    0.0000    0.1400    0.0000    0.0000   -0.0141
       40 V      5d2-      -0.0015   -0.0000   -0.0000   -0.0000    0.5451    0.0000    0.1258    0.0000    0.0000   -0.0152
       41 V      6d2-      -0.0007   -0.0000   -0.0000   -0.0000    0.3189    0.0000    0.0740    0.0000    0.0000   -0.0095
       42 V      7d2-      -0.0002   -0.0000   -0.0000   -0.0000    0.2544    0.0000    0.0589    0.0000    0.0000   -0.0083
       43 V      8d2-      -0.0002   -0.0000   -0.0000   -0.0000    0.1300    0.0000    0.0302    0.0000    0.0000   -0.0042
       44 V      9d2-       0.0001    0.0000   -0.0000   -0.0000    0.0581    0.0000    0.0135    0.0000    0.0000   -0.0022
       45 V     10d2-      -0.0000   -0.0000   -0.0000    0.0000    0.0103    0.0000    0.0024    0.0000    0.0000   -0.0003
       46 V      3d1-      -0.0097   -0.0000   -0.0000    0.0000   -0.0721   -0.0000    0.3023    0.0000    0.0000    0.0118
       47 V      4d1-       0.0041    0.0000   -0.0000    0.0000   -0.1398   -0.0000    0.6084    0.0000    0.0000   -0.0103
       48 V      5d1-       0.0045    0.0000   -0.0000   -0.0000   -0.1252   -0.0000    0.5467    0.0000    0.0000   -0.0120
       49 V      6d1-       0.0021    0.0000   -0.0000   -0.0000   -0.0730   -0.0000    0.3206    0.0000    0.0000   -0.0064
       50 V      7d1-       0.0023    0.0000   -0.0000   -0.0000   -0.0585   -0.0000    0.2560    0.0000    0.0000   -0.0061
       51 V      8d1-       0.0007    0.0000   -0.0000   -0.0000   -0.0298   -0.0000    0.1310    0.0000    0.0000   -0.0025
       52 V      9d1-       0.0006    0.0000   -0.0000   -0.0000   -0.0134   -0.0000    0.0586    0.0000    0.0000   -0.0015
       53 V     10d1-      -0.0000   -0.0000    0.0000    0.0000   -0.0024   -0.0000    0.0103    0.0000    0.0000   -0.0001
       54 V      3d0       -0.0000   -0.0000    0.0076   -0.0062   -0.0000    0.0000   -0.0000   -0.0000    0.3087    0.0000
       55 V      4d0        0.0000   -0.0000    0.0117   -0.0025   -0.0000    0.0000   -0.0000   -0.0000    0.6237    0.0000
       56 V      5d0       -0.0000   -0.0000    0.0095   -0.0019   -0.0000    0.0000   -0.0000   -0.0000    0.5607    0.0000
       57 V      6d0       -0.0000   -0.0000    0.0044   -0.0013   -0.0000    0.0000   -0.0000   -0.0000    0.3289    0.0000
       58 V      7d0       -0.0000   -0.0000    0.0033   -0.0006   -0.0000    0.0000   -0.0000   -0.0000    0.2626    0.0000
       59 V      8d0       -0.0000   -0.0000    0.0014   -0.0005   -0.0000    0.0000   -0.0000   -0.0000    0.1344    0.0000
       60 V      9d0       -0.0000   -0.0000    0.0005   -0.0000   -0.0000    0.0000   -0.0000   -0.0000    0.0601    0.0000
       61 V     10d0       -0.0000   -0.0000    0.0001   -0.0001   -0.0000    0.0000   -0.0000   -0.0000    0.0106    0.0000
       62 V      3d1+       0.0000   -0.0097    0.0000    0.0000   -0.0000    0.0721   -0.0000    0.3023    0.0000    0.0000
       63 V      4d1+      -0.0000    0.0041    0.0000    0.0000   -0.0000    0.1398   -0.0000    0.6084    0.0000   -0.0000
       64 V      5d1+      -0.0000    0.0045    0.0000    0.0000   -0.0000    0.1252   -0.0000    0.5467    0.0000   -0.0000
       65 V      6d1+      -0.0000    0.0021    0.0000    0.0000   -0.0000    0.0730   -0.0000    0.3206    0.0000   -0.0000
       66 V      7d1+      -0.0000    0.0023    0.0000    0.0000   -0.0000    0.0585   -0.0000    0.2560    0.0000   -0.0000
       67 V      8d1+      -0.0000    0.0007    0.0000    0.0000   -0.0000    0.0298   -0.0000    0.1310    0.0000   -0.0000
       68 V      9d1+      -0.0000    0.0006    0.0000    0.0000   -0.0000    0.0134   -0.0000    0.0586    0.0000   -0.0000
       69 V     10d1+       0.0000   -0.0000   -0.0000   -0.0000   -0.0000    0.0024   -0.0000    0.0103    0.0000   -0.0000
       70 V      3d2+      -0.0000    0.0070   -0.0000   -0.0000   -0.0000    0.3083    0.0000   -0.0681   -0.0000   -0.0000
       71 V      4d2+      -0.0000    0.0026   -0.0000   -0.0000   -0.0000    0.6085    0.0000   -0.1400   -0.0000    0.0000
       72 V      5d2+      -0.0000    0.0015   -0.0000   -0.0000   -0.0000    0.5451    0.0000   -0.1258   -0.0000    0.0000
       73 V      6d2+      -0.0000    0.0007   -0.0000   -0.0000   -0.0000    0.3189    0.0000   -0.0740   -0.0000    0.0000
       74 V      7d2+      -0.0000    0.0002   -0.0000   -0.0000   -0.0000    0.2544    0.0000   -0.0589   -0.0000    0.0000
       75 V      8d2+      -0.0000    0.0002   -0.0000   -0.0000   -0.0000    0.1300    0.0000   -0.0302   -0.0000    0.0000
       76 V      9d2+       0.0000   -0.0001   -0.0000   -0.0000   -0.0000    0.0581    0.0000   -0.0135   -0.0000    0.0000
       77 V     10d2+      -0.0000    0.0000    0.0000   -0.0000   -0.0000    0.0103    0.0000   -0.0024   -0.0000    0.0000
       78 V      4f3-       0.0000    0.0000    0.0000    0.0000    0.0000    0.0000    0.0000    0.0000   -0.0000   -0.0000
       79 V      5f3-      -0.0000   -0.0000    0.0000   -0.0000    0.0000    0.0000    0.0000    0.0000   -0.0000    0.0000
       80 V      6f3-      -0.0000   -0.0000    0.0000   -0.0000    0.0000    0.0000    0.0000    0.0000   -0.0000    0.0000
       81 V      7f3-      -0.0000   -0.0000   -0.0000   -0.0000    0.0000    0.0000    0.0000    0.0000   -0.0000    0.0000
       82 V      8f3-      -0.0000    0.0000   -0.0000   -0.0000    0.0000    0.0000    0.0000    0.0000   -0.0000    0.0000
       83 V      9f3-      -0.0000    0.0000   -0.0000    0.0000    0.0000    0.0000    0.0000    0.0000   -0.0000    0.0000
       84 V      4f2-       0.0002    0.0000    0.0000    0.0000    0.0027    0.0000    0.0010    0.0000    0.0000   -0.0003
       85 V      5f2-      -0.0001   -0.0000    0.0000   -0.0000    0.0033    0.0000    0.0006    0.0000    0.0000    0.0001
       86 V      6f2-       0.0001    0.0000    0.0000    0.0000    0.0040    0.0000    0.0009    0.0000    0.0000   -0.0002
       87 V      7f2-      -0.0001   -0.0000    0.0000   -0.0000    0.0033    0.0000    0.0006    0.0000    0.0000   -0.0000
       88 V      8f2-       0.0000    0.0000   -0.0000   -0.0000    0.0024    0.0000    0.0006    0.0000    0.0000   -0.0001
       89 V      9f2-      -0.0000   -0.0000   -0.0000    0.0000    0.0016    0.0000    0.0003    0.0000    0.0000   -0.0000
       90 V      4f1-       0.0002    0.0000    0.0000   -0.0000   -0.0008   -0.0000    0.0025    0.0000    0.0000   -0.0002
       91 V      5f1-      -0.0009   -0.0000   -0.0000   -0.0000   -0.0009   -0.0000    0.0046    0.0000    0.0000    0.0011
       92 V      6f1-      -0.0006   -0.0000   -0.0000   -0.0000   -0.0011   -0.0000    0.0050    0.0000    0.0000    0.0007
       93 V      7f1-      -0.0005   -0.0000   -0.0000    0.0000   -0.0010   -0.0000    0.0045    0.0000    0.0000    0.0006
       94 V      8f1-      -0.0002   -0.0000   -0.0000   -0.0000   -0.0007   -0.0000    0.0030    0.0000    0.0000    0.0002
       95 V      9f1-      -0.0002   -0.0000   -0.0000    0.0000   -0.0005   -0.0000    0.0022    0.0000    0.0000    0.0001
       96 V      4f0       -0.0000    0.0000    0.0004   -0.0012   -0.0000    0.0000   -0.0000   -0.0000    0.0023   -0.0000
       97 V      5f0       -0.0000    0.0000   -0.0010    0.0004   -0.0000    0.0000   -0.0000   -0.0000    0.0051    0.0000
       98 V      6f0       -0.0000    0.0000   -0.0006   -0.0005   -0.0000    0.0000   -0.0000   -0.0000    0.0054    0.0000
       99 V      7f0       -0.0000    0.0000   -0.0007    0.0001   -0.0000    0.0000   -0.0000   -0.0000    0.0051    0.0000
      100 V      8f0       -0.0000    0.0000   -0.0003   -0.0001   -0.0000    0.0000   -0.0000   -0.0000    0.0032    0.0000
      101 V      9f0       -0.0000    0.0000   -0.0002   -0.0000   -0.0000    0.0000   -0.0000   -0.0000    0.0025    0.0000
      102 V      4f1+      -0.0000    0.0002    0.0000    0.0000   -0.0000    0.0008   -0.0000    0.0025    0.0000   -0.0000
      103 V      5f1+       0.0000   -0.0009   -0.0000   -0.0000   -0.0000    0.0009   -0.0000    0.0046    0.0000    0.0000
      104 V      6f1+       0.0000   -0.0006   -0.0000    0.0000   -0.0000    0.0011   -0.0000    0.0050    0.0000    0.0000
      105 V      7f1+       0.0000   -0.0005   -0.0000   -0.0000   -0.0000    0.0010   -0.0000    0.0045    0.0000    0.0000
      106 V      8f1+       0.0000   -0.0002   -0.0000   -0.0000   -0.0000    0.0007   -0.0000    0.0030    0.0000    0.0000
      107 V      9f1+       0.0000   -0.0002   -0.0000    0.0000   -0.0000    0.0005   -0.0000    0.0022    0.0000    0.0000
      108 V      4f2+       0.0000   -0.0002    0.0000    0.0000   -0.0000    0.0027    0.0000   -0.0010   -0.0000    0.0000
      109 V      5f2+      -0.0000    0.0001   -0.0000   -0.0000   -0.0000    0.0033    0.0000   -0.0006   -0.0000   -0.0000
      110 V      6f2+       0.0000   -0.0001   -0.0000    0.0000   -0.0000    0.0040    0.0000   -0.0009   -0.0000    0.0000
      111 V      7f2+      -0.0000    0.0001   -0.0000   -0.0000   -0.0000    0.0033    0.0000   -0.0006   -0.0000    0.0000
      112 V      8f2+       0.0000   -0.0000   -0.0000    0.0000   -0.0000    0.0024    0.0000   -0.0006   -0.0000    0.0000
      113 V      9f2+      -0.0000    0.0000   -0.0000   -0.0000   -0.0000    0.0016    0.0000   -0.0003   -0.0000    0.0000
      114 V      4f3+      -0.0000    0.0000   -0.0003   -0.0008   -0.0000    0.0000   -0.0000   -0.0000    0.0004   -0.0000
      115 V      5f3+       0.0000   -0.0000    0.0001    0.0002   -0.0000    0.0000    0.0000   -0.0000   -0.0002    0.0000
      116 V      6f3+       0.0000   -0.0000   -0.0001   -0.0003   -0.0000    0.0000   -0.0000   -0.0000   -0.0000    0.0000
      117 V      7f3+       0.0000   -0.0000    0.0001    0.0001   -0.0000    0.0000   -0.0000   -0.0000   -0.0002    0.0000
      118 V      8f3+       0.0000   -0.0000   -0.0001   -0.0001   -0.0000    0.0000   -0.0000   -0.0000    0.0000    0.0000
      119 V      9f3+       0.0000   -0.0000    0.0000   -0.0000   -0.0000    0.0000   -0.0000   -0.0000   -0.0001    0.0000
      120 V      5g4-       0.0003    0.0000    0.0000    0.0000   -0.0000   -0.0000    0.0001    0.0000    0.0000   -0.0004
      121 V      6g4-      -0.0001   -0.0000   -0.0000   -0.0000   -0.0000   -0.0000   -0.0000   -0.0000   -0.0000    0.0001
      122 V      7g4-       0.0002    0.0000    0.0000    0.0000   -0.0000   -0.0000    0.0000    0.0000    0.0000   -0.0002
      123 V      8g4-      -0.0000   -0.0000   -0.0000   -0.0000   -0.0000   -0.0000   -0.0000   -0.0000   -0.0000    0.0001
      124 V      5g3-      -0.0000   -0.0000   -0.0000   -0.0000    0.0000    0.0000   -0.0000    0.0000   -0.0000    0.0000
      125 V      6g3-       0.0000    0.0000    0.0000   -0.0000    0.0000    0.0000   -0.0000    0.0000   -0.0000   -0.0000
      126 V      7g3-      -0.0000   -0.0000   -0.0000    0.0000    0.0000    0.0000   -0.0000    0.0000   -0.0000    0.0000
      127 V      8g3-       0.0000    0.0000    0.0000   -0.0000    0.0000    0.0000   -0.0000    0.0000   -0.0000   -0.0000
      128 V      5g2-       0.0000    0.0000    0.0000   -0.0000   -0.0002   -0.0000   -0.0001   -0.0000   -0.0000   -0.0000
      129 V      6g2-       0.0000    0.0000   -0.0000    0.0000   -0.0002   -0.0000   -0.0000   -0.0000   -0.0000    0.0000
      130 V      7g2-       0.0000    0.0000    0.0000   -0.0000   -0.0002   -0.0000   -0.0001   -0.0000   -0.0000   -0.0000
      131 V      8g2-       0.0000    0.0000    0.0000    0.0000   -0.0001   -0.0000    0.0000    0.0000    0.0000    0.0000
      132 V      5g1-       0.0004    0.0000    0.0000   -0.0000    0.0001    0.0000   -0.0003   -0.0000   -0.0000   -0.0005
      133 V      6g1-      -0.0001   -0.0000   -0.0000   -0.0000    0.0000    0.0000   -0.0003   -0.0000   -0.0000    0.0002
      134 V      7g1-       0.0002    0.0000    0.0000    0.0000    0.0001    0.0000   -0.0003   -0.0000   -0.0000   -0.0003
      135 V      8g1-      -0.0001   -0.0000   -0.0000   -0.0000    0.0000    0.0000   -0.0002   -0.0000   -0.0000    0.0001
      136 V      5g0        0.0000   -0.0000    0.0005   -0.0000    0.0000   -0.0000    0.0000    0.0000   -0.0004    0.0000
      137 V      6g0       -0.0000    0.0000   -0.0002    0.0000    0.0000   -0.0000    0.0000    0.0000   -0.0003    0.0000
      138 V      7g0       -0.0000   -0.0000    0.0003   -0.0000    0.0000   -0.0000    0.0000    0.0000   -0.0004    0.0000
      139 V      8g0       -0.0000    0.0000   -0.0001    0.0000    0.0000   -0.0000    0.0000    0.0000   -0.0001    0.0000
      140 V      5g1+      -0.0000    0.0004   -0.0000   -0.0000    0.0000   -0.0001    0.0000   -0.0003   -0.0000   -0.0000
      141 V      6g1+       0.0000   -0.0001    0.0000    0.0000    0.0000   -0.0000    0.0000   -0.0003   -0.0000    0.0000
      142 V      7g1+      -0.0000    0.0002   -0.0000   -0.0000    0.0000   -0.0001    0.0000   -0.0003   -0.0000   -0.0000
      143 V      8g1+       0.0000   -0.0001    0.0000    0.0000    0.0000   -0.0000    0.0000   -0.0002   -0.0000    0.0000
      144 V      5g2+       0.0000   -0.0000   -0.0000    0.0000    0.0000   -0.0002   -0.0000    0.0001   -0.0000    0.0000
      145 V      6g2+       0.0000   -0.0000    0.0000    0.0000    0.0000   -0.0002   -0.0000    0.0000   -0.0000   -0.0000
      146 V      7g2+       0.0000   -0.0000   -0.0000    0.0000    0.0000   -0.0002   -0.0000    0.0001   -0.0000    0.0000
      147 V      8g2+       0.0000   -0.0000    0.0000    0.0000    0.0000   -0.0001    0.0000   -0.0000   -0.0000   -0.0000
      148 V      5g3+       0.0000   -0.0000    0.0003    0.0002    0.0000   -0.0000    0.0000   -0.0000   -0.0000   -0.0000
      149 V      6g3+      -0.0000    0.0000   -0.0001   -0.0001    0.0000   -0.0000   -0.0000   -0.0000    0.0000    0.0000
      150 V      7g3+       0.0000   -0.0000    0.0002    0.0001    0.0000   -0.0000    0.0000   -0.0000   -0.0000    0.0000
      151 V      8g3+      -0.0000    0.0000   -0.0001   -0.0001    0.0000   -0.0000   -0.0000   -0.0000    0.0000    0.0000
      152 V      5g4+      -0.0000    0.0003    0.0000   -0.0000   -0.0000    0.0000   -0.0000    0.0001    0.0000   -0.0000
      153 V      6g4+       0.0000   -0.0001   -0.0000    0.0000   -0.0000    0.0000    0.0000   -0.0000   -0.0000    0.0000
      154 V      7g4+      -0.0000    0.0002    0.0000   -0.0000   -0.0000    0.0000   -0.0000    0.0000    0.0000   -0.0000
      155 V      8g4+       0.0000   -0.0000   -0.0000    0.0000   -0.0000    0.0000    0.0000   -0.0000   -0.0000    0.0000
      156 V      6h5-       0.0000    0.0000    0.0000    0.0000   -0.0001   -0.0000   -0.0000   -0.0000   -0.0000    0.0000
      157 V      7h5-       0.0000    0.0000    0.0000   -0.0000    0.0001    0.0000    0.0000    0.0000    0.0000   -0.0000
      158 V      6h4-      -0.0001   -0.0000   -0.0000    0.0000    0.0000    0.0000   -0.0001   -0.0000   -0.0000    0.0001
      159 V      7h4-       0.0000    0.0000    0.0000    0.0000   -0.0000   -0.0000    0.0000    0.0000    0.0000   -0.0000
      160 V      6h3-       0.0000   -0.0000    0.0000    0.0000   -0.0000    0.0000    0.0000   -0.0000    0.0000   -0.0000
      161 V      7h3-      -0.0000   -0.0000    0.0000   -0.0000    0.0000    0.0000   -0.0000    0.0000    0.0000    0.0000
      162 V      6h2-      -0.0000   -0.0000   -0.0000   -0.0000   -0.0001   -0.0000   -0.0000   -0.0000   -0.0000    0.0000
      163 V      7h2-       0.0000    0.0000    0.0000    0.0000    0.0000    0.0000    0.0000    0.0000    0.0000   -0.0000
      164 V      6h1-       0.0000    0.0000    0.0000    0.0000    0.0000    0.0000   -0.0001   -0.0000   -0.0000   -0.0000
      165 V      7h1-      -0.0000   -0.0000    0.0000   -0.0000   -0.0000   -0.0000    0.0001    0.0000    0.0000    0.0000
      166 V      6h0       -0.0000   -0.0000    0.0000   -0.0000    0.0000   -0.0000    0.0000    0.0000   -0.0001    0.0000
      167 V      7h0       -0.0000    0.0000   -0.0000    0.0000   -0.0000    0.0000   -0.0000   -0.0000    0.0001    0.0000
      168 V      6h1+      -0.0000    0.0000    0.0000    0.0000    0.0000   -0.0000    0.0000   -0.0001   -0.0000   -0.0000
      169 V      7h1+       0.0000   -0.0000   -0.0000   -0.0000   -0.0000    0.0000   -0.0000    0.0001    0.0000    0.0000
      170 V      6h2+      -0.0000    0.0000    0.0000   -0.0000    0.0000   -0.0001   -0.0000    0.0000    0.0000   -0.0000
      171 V      7h2+       0.0000   -0.0000   -0.0000    0.0000   -0.0000    0.0000    0.0000   -0.0000   -0.0000    0.0000
      172 V      6h3+      -0.0000    0.0000   -0.0001   -0.0000    0.0000   -0.0000    0.0000    0.0000   -0.0000    0.0000
      173 V      7h3+       0.0000   -0.0000    0.0000    0.0000   -0.0000    0.0000   -0.0000   -0.0000    0.0000    0.0000
      174 V      6h4+       0.0000   -0.0001   -0.0000   -0.0000    0.0000   -0.0000    0.0000   -0.0001   -0.0000    0.0000
      175 V      7h4+      -0.0000    0.0000    0.0000    0.0000   -0.0000    0.0000   -0.0000    0.0000    0.0000   -0.0000
      176 V      6h5+       0.0000   -0.0000   -0.0000   -0.0000    0.0000   -0.0001   -0.0000    0.0000    0.0000   -0.0000
      177 V      7h5+       0.0000   -0.0000    0.0000    0.0000   -0.0000    0.0001    0.0000   -0.0000   -0.0000    0.0000

          Orbital           21        22        23        24        25        26        27        28        29        30    
          Energy           -0.0121   -0.0098    0.0582    0.0774    0.0774    0.0776    0.0776    0.0778    0.0778    0.0778
          Occ. No.          0.0000    0.0000    0.0000    0.0000    0.0000    0.0000    0.0000    0.0000    0.0000    0.0000

        1 V      1s         0.0000    0.0000    0.0000    0.0000   -0.0000   -0.0000   -0.0000    0.0000    0.0000   -0.0000
        2 V      2s         0.0000    0.0001    0.0039    0.0000   -0.0000   -0.0000   -0.0000   -0.0000    0.0000   -0.0000
        3 V      3s        -0.0000   -0.0048   -0.0638   -0.0000    0.0002    0.0000    0.0000   -0.0000   -0.0000    0.0003
        4 V      4s         0.0000    0.0168    0.2108    0.0000   -0.0005   -0.0000   -0.0000    0.0000    0.0000   -0.0008
        5 V      5s        -0.0000    0.0007   -0.4717   -0.0000    0.0005    0.0000    0.0000   -0.0000   -0.0000    0.0008
        6 V      6s        -0.0000   -0.0259    0.0298   -0.0000    0.0001    0.0000    0.0000   -0.0000   -0.0000    0.0002
        7 V      7s        -0.0000   -0.0362    0.4202    0.0000   -0.0004   -0.0000   -0.0000    0.0000    0.0000   -0.0006
        8 V      8s        -0.0000   -0.0213    0.3925    0.0000   -0.0004   -0.0000   -0.0000    0.0000    0.0000   -0.0006
        9 V      9s        -0.0000   -0.0247    0.5915    0.0000   -0.0007   -0.0000   -0.0000    0.0000    0.0000   -0.0010
       10 V     10s        -0.0000   -0.0081    0.2114    0.0000   -0.0002   -0.0000   -0.0000    0.0000    0.0000   -0.0004
       11 V      2px       -0.0036   -0.0000   -0.0000    0.0000    0.0000    0.0000    0.0000   -0.0000    0.0000   -0.0000
       12 V      3px        0.0691    0.0000    0.0000    0.0000   -0.0000   -0.0000   -0.0000    0.0000   -0.0001    0.0000
       13 V      4px       -0.4749   -0.0000   -0.0000   -0.0000    0.0000    0.0000    0.0000   -0.0000    0.0015    0.0000
       14 V      5px       -0.0207   -0.0000   -0.0000   -0.0000    0.0000    0.0000    0.0000   -0.0000    0.0004    0.0000
       15 V      6px        0.4011    0.0000   -0.0000   -0.0000   -0.0000    0.0000    0.0000    0.0000   -0.0000   -0.0000
       16 V      7px        0.4660    0.0000    0.0000    0.0000   -0.0000   -0.0000   -0.0000    0.0000   -0.0004   -0.0000
       17 V      8px        0.5660    0.0000    0.0000    0.0000   -0.0000   -0.0000   -0.0000    0.0000   -0.0006   -0.0000
       18 V      9px        0.2594    0.0000    0.0000    0.0000   -0.0000   -0.0000   -0.0000    0.0000   -0.0003   -0.0000
       19 V     10px        0.0489    0.0000    0.0000    0.0000   -0.0000   -0.0000   -0.0000    0.0000   -0.0001   -0.0000
       20 V      2py        0.0000    0.0000    0.0000    0.0000   -0.0000   -0.0000    0.0000    0.0000    0.0000    0.0000
       21 V      3py       -0.0000   -0.0000    0.0000   -0.0000    0.0000    0.0000   -0.0000   -0.0001   -0.0000   -0.0000
       22 V      4py        0.0000    0.0000   -0.0000    0.0000    0.0000   -0.0000    0.0000    0.0015    0.0000    0.0000
       23 V      5py        0.0000    0.0000    0.0000    0.0000    0.0000   -0.0000    0.0000    0.0004    0.0000    0.0000
       24 V      6py       -0.0000   -0.0000    0.0000   -0.0000    0.0000   -0.0000    0.0000   -0.0000   -0.0000   -0.0000
       25 V      7py       -0.0000   -0.0000    0.0000   -0.0000   -0.0000    0.0000   -0.0000   -0.0004   -0.0000   -0.0000
       26 V      8py       -0.0000   -0.0000   -0.0000   -0.0000   -0.0000    0.0000   -0.0000   -0.0006   -0.0000   -0.0000
       27 V      9py       -0.0000   -0.0000   -0.0000   -0.0000   -0.0000    0.0000   -0.0000   -0.0003   -0.0000   -0.0000
       28 V     10py       -0.0000   -0.0000   -0.0000   -0.0000   -0.0000    0.0000   -0.0000   -0.0001   -0.0000   -0.0000
       29 V      2pz       -0.0000   -0.0036   -0.0003   -0.0000    0.0000    0.0000    0.0000    0.0000   -0.0000    0.0000
       30 V      3pz       -0.0000    0.0776    0.0095    0.0000   -0.0001   -0.0000   -0.0000    0.0000    0.0000   -0.0001
       31 V      4pz        0.0000   -0.4801   -0.0109   -0.0000    0.0000    0.0000    0.0000    0.0000   -0.0000    0.0018
       32 V      5pz        0.0000   -0.0406   -0.0230   -0.0000    0.0001    0.0000    0.0000    0.0000   -0.0000    0.0006
       33 V      6pz       -0.0000    0.3838   -0.0048   -0.0000    0.0000   -0.0000   -0.0000    0.0000   -0.0000    0.0000
       34 V      7pz       -0.0000    0.4636    0.0192    0.0000   -0.0001   -0.0000   -0.0000   -0.0000    0.0000   -0.0005
       35 V      8pz       -0.0000    0.5685    0.0327    0.0000   -0.0001   -0.0000   -0.0000   -0.0000    0.0000   -0.0009
       36 V      9pz       -0.0000    0.2617    0.0181    0.0000   -0.0001   -0.0000   -0.0000   -0.0000    0.0000   -0.0004
       37 V     10pz       -0.0000    0.0494    0.0039    0.0000   -0.0000   -0.0000   -0.0000   -0.0000    0.0000   -0.0001
       38 V      3d2-      -0.0000    0.0000    0.0000   -0.0000    0.0000   -0.0002    0.0000   -0.0002   -0.0000   -0.0000
       39 V      4d2-       0.0000    0.0000    0.0000   -0.0000    0.0000   -0.0033    0.0000   -0.0001   -0.0000   -0.0000
       40 V      5d2-       0.0000    0.0000    0.0000   -0.0000    0.0000   -0.0048    0.0000    0.0000    0.0000   -0.0000
       41 V      6d2-       0.0000    0.0000    0.0000   -0.0000    0.0000   -0.0035    0.0000    0.0000    0.0000   -0.0000
       42 V      7d2-       0.0000    0.0000    0.0000   -0.0000    0.0000   -0.0032    0.0000    0.0000    0.0000   -0.0000
       43 V      8d2-       0.0000    0.0000    0.0000   -0.0000    0.0000   -0.0019    0.0000    0.0000    0.0000   -0.0000
       44 V      9d2-       0.0000    0.0000    0.0000   -0.0000    0.0000   -0.0010    0.0000    0.0000    0.0000   -0.0000
       45 V     10d2-       0.0000    0.0000    0.0000   -0.0000    0.0000   -0.0002    0.0000    0.0000    0.0000   -0.0000
       46 V      3d1-      -0.0000   -0.0000    0.0000   -0.0000    0.0000    0.0002   -0.0000   -0.0010   -0.0000   -0.0000
       47 V      4d1-       0.0000    0.0000   -0.0000   -0.0000   -0.0000    0.0001   -0.0000   -0.0044   -0.0000   -0.0000
       48 V      5d1-       0.0000    0.0000   -0.0000   -0.0000   -0.0000   -0.0000    0.0000   -0.0059   -0.0000   -0.0000
       49 V      6d1-       0.0000    0.0000   -0.0000   -0.0000   -0.0000    0.0000   -0.0000   -0.0044   -0.0000   -0.0000
       50 V      7d1-       0.0000    0.0000   -0.0000   -0.0000   -0.0000   -0.0000    0.0000   -0.0039   -0.0000   -0.0000
       51 V      8d1-       0.0000    0.0000   -0.0000   -0.0000   -0.0000    0.0000   -0.0000   -0.0024   -0.0000    0.0000
       52 V      9d1-       0.0000    0.0000   -0.0000   -0.0000   -0.0000   -0.0000    0.0000   -0.0012   -0.0000    0.0000
       53 V     10d1-       0.0000    0.0000    0.0000   -0.0000   -0.0000   -0.0000    0.0000   -0.0002   -0.0000    0.0000
       54 V      3d0       -0.0000    0.0083    0.0110   -0.0000    0.0003   -0.0000   -0.0000    0.0000   -0.0000   -0.0013
       55 V      4d0       -0.0000    0.0251   -0.0019   -0.0000    0.0001   -0.0000   -0.0000    0.0000   -0.0000   -0.0048
       56 V      5d0       -0.0000    0.0263   -0.0061   -0.0000    0.0000   -0.0000   -0.0000    0.0000   -0.0000   -0.0063
       57 V      6d0       -0.0000    0.0179   -0.0043   -0.0000    0.0000   -0.0000   -0.0000    0.0000   -0.0000   -0.0046
       58 V      7d0       -0.0000    0.0151   -0.0047   -0.0000    0.0000   -0.0000   -0.0000    0.0000   -0.0000   -0.0041
       59 V      8d0       -0.0000    0.0085   -0.0024   -0.0000    0.0000   -0.0000   -0.0000    0.0000   -0.0000   -0.0025
       60 V      9d0       -0.0000    0.0042   -0.0015   -0.0000    0.0000   -0.0000   -0.0000    0.0000   -0.0000   -0.0013
       61 V     10d0       -0.0000    0.0007   -0.0002   -0.0000    0.0000   -0.0000   -0.0000    0.0000   -0.0000   -0.0002
       62 V      3d1+       0.0118    0.0000   -0.0000   -0.0000   -0.0000   -0.0000   -0.0002    0.0000   -0.0010    0.0000
       63 V      4d1+      -0.0103    0.0000    0.0000    0.0000   -0.0000   -0.0000   -0.0001    0.0000   -0.0044    0.0000
       64 V      5d1+      -0.0120    0.0000    0.0000    0.0000   -0.0000    0.0000    0.0000    0.0000   -0.0059   -0.0000
       65 V      6d1+      -0.0064    0.0000    0.0000    0.0000   -0.0000   -0.0000   -0.0000    0.0000   -0.0044   -0.0000
       66 V      7d1+      -0.0061    0.0000    0.0000    0.0000   -0.0000    0.0000    0.0000    0.0000   -0.0039   -0.0000
       67 V      8d1+      -0.0025    0.0000    0.0000    0.0000   -0.0000   -0.0000   -0.0000    0.0000   -0.0024   -0.0000
       68 V      9d1+      -0.0015    0.0000    0.0000    0.0000   -0.0000    0.0000    0.0000    0.0000   -0.0012   -0.0000
       69 V     10d1+      -0.0001    0.0000    0.0000    0.0000   -0.0000    0.0000    0.0000    0.0000   -0.0002   -0.0000
       70 V      3d2+      -0.0015    0.0000    0.0000   -0.0000   -0.0000   -0.0000   -0.0002   -0.0000    0.0002   -0.0000
       71 V      4d2+       0.0141   -0.0000   -0.0000    0.0000   -0.0000   -0.0000   -0.0033   -0.0000    0.0001    0.0000
       72 V      5d2+       0.0152   -0.0000   -0.0000    0.0000   -0.0000   -0.0000   -0.0048    0.0000   -0.0000    0.0000
       73 V      6d2+       0.0095   -0.0000   -0.0000    0.0000   -0.0000   -0.0000   -0.0035    0.0000   -0.0000    0.0000
       74 V      7d2+       0.0083   -0.0000   -0.0000    0.0000   -0.0000   -0.0000   -0.0032    0.0000   -0.0000    0.0000
       75 V      8d2+       0.0042   -0.0000   -0.0000    0.0000   -0.0000   -0.0000   -0.0019    0.0000   -0.0000    0.0000
       76 V      9d2+       0.0022   -0.0000   -0.0000    0.0000   -0.0000   -0.0000   -0.0010    0.0000   -0.0000    0.0000
       77 V     10d2+       0.0003   -0.0000   -0.0000    0.0000   -0.0000   -0.0000   -0.0002    0.0000   -0.0000    0.0000
       78 V      4f3-       0.0000   -0.0000    0.0000    0.1250    0.0000    0.0000   -0.0000   -0.0000    0.0000   -0.0000
       79 V      5f3-      -0.0000   -0.0000    0.0000    0.3778    0.0000    0.0000   -0.0000   -0.0000    0.0000   -0.0000
       80 V      6f3-      -0.0000   -0.0000    0.0000    0.5072    0.0000    0.0000   -0.0000   -0.0000    0.0000   -0.0000
       81 V      7f3-      -0.0000   -0.0000    0.0000    0.5486    0.0000    0.0000   -0.0000   -0.0000    0.0000   -0.0000
       82 V      8f3-      -0.0000    0.0000    0.0000    0.4098    0.0000    0.0000   -0.0000   -0.0000    0.0000   -0.0000
       83 V      9f3-      -0.0000    0.0000    0.0000    0.3400    0.0000    0.0000   -0.0000   -0.0000    0.0000   -0.0000
       84 V      4f2-       0.0000    0.0000   -0.0000   -0.0000   -0.0000    0.1248   -0.0000    0.0005    0.0000    0.0000
       85 V      5f2-      -0.0000   -0.0000   -0.0000   -0.0000   -0.0000    0.3775   -0.0000    0.0017    0.0000    0.0000
       86 V      6f2-       0.0000    0.0000   -0.0000   -0.0000   -0.0000    0.5070   -0.0001    0.0022    0.0000    0.0000
       87 V      7f2-       0.0000    0.0000   -0.0000   -0.0000   -0.0000    0.5486   -0.0001    0.0024    0.0000    0.0000
       88 V      8f2-       0.0000    0.0000   -0.0000   -0.0000   -0.0000    0.4099   -0.0001    0.0018    0.0000    0.0000
       89 V      9f2-       0.0000    0.0000   -0.0000   -0.0000   -0.0000    0.3401   -0.0000    0.0015    0.0000    0.0000
       90 V      4f1-       0.0000    0.0000   -0.0000    0.0000    0.0000   -0.0006    0.0000    0.1247    0.0000    0.0000
       91 V      5f1-      -0.0000   -0.0000    0.0000    0.0000    0.0000   -0.0017    0.0000    0.3774    0.0000    0.0000
       92 V      6f1-      -0.0000   -0.0000    0.0000    0.0000    0.0000   -0.0022    0.0000    0.5070    0.0000    0.0000
       93 V      7f1-      -0.0000   -0.0000   -0.0000    0.0000    0.0000   -0.0024    0.0000    0.5487    0.0000    0.0000
       94 V      8f1-      -0.0000    0.0000    0.0000    0.0000    0.0000   -0.0018    0.0000    0.4100    0.0000    0.0000
       95 V      9f1-      -0.0000    0.0000   -0.0000    0.0000    0.0000   -0.0015    0.0000    0.3403    0.0000    0.0000
       96 V      4f0       -0.0000   -0.0004    0.0023    0.0000   -0.0006    0.0000    0.0000   -0.0000   -0.0000    0.1247
       97 V      5f0       -0.0000    0.0017   -0.0000    0.0000   -0.0018    0.0000    0.0000   -0.0000   -0.0000    0.3773
       98 V      6f0       -0.0000    0.0012    0.0016    0.0000   -0.0024    0.0000    0.0000   -0.0000   -0.0000    0.5069
       99 V      7f0       -0.0000    0.0012    0.0004    0.0000   -0.0026    0.0000    0.0000   -0.0000   -0.0000    0.5487
      100 V      8f0       -0.0000    0.0005    0.0007    0.0000   -0.0019    0.0000    0.0000   -0.0000   -0.0000    0.4100
      101 V      9f0       -0.0000    0.0004    0.0004    0.0000   -0.0016    0.0000    0.0000   -0.0000   -0.0000    0.3403
      102 V      4f1+      -0.0002   -0.0000   -0.0000   -0.0000    0.0000    0.0000    0.0006   -0.0000    0.1247    0.0000
      103 V      5f1+       0.0011    0.0000    0.0000   -0.0000    0.0000    0.0000    0.0017   -0.0000    0.3774    0.0000
      104 V      6f1+       0.0007    0.0000   -0.0000   -0.0000    0.0000    0.0000    0.0022   -0.0000    0.5070    0.0000
      105 V      7f1+       0.0006    0.0000    0.0000   -0.0000    0.0000    0.0000    0.0024   -0.0000    0.5487    0.0000
      106 V      8f1+       0.0002    0.0000    0.0000   -0.0000    0.0000    0.0000    0.0018   -0.0000    0.4100    0.0000
      107 V      9f1+       0.0001    0.0000   -0.0000   -0.0000    0.0000    0.0000    0.0015   -0.0000    0.3403    0.0000
      108 V      4f2+       0.0003   -0.0000   -0.0000   -0.0000   -0.0000    0.0000    0.1248    0.0000   -0.0005   -0.0000
      109 V      5f2+      -0.0001    0.0000    0.0000   -0.0000   -0.0000    0.0000    0.3775    0.0000   -0.0017   -0.0000
      110 V      6f2+       0.0002    0.0000   -0.0000   -0.0000   -0.0000    0.0001    0.5070    0.0000   -0.0022   -0.0000
      111 V      7f2+       0.0000    0.0000    0.0000   -0.0000   -0.0000    0.0001    0.5486    0.0000   -0.0024   -0.0000
      112 V      8f2+       0.0001    0.0000   -0.0000   -0.0000   -0.0000    0.0001    0.4099    0.0000   -0.0018   -0.0000
      113 V      9f2+       0.0000    0.0000   -0.0000   -0.0000   -0.0000    0.0000    0.3401    0.0000   -0.0015   -0.0000
      114 V      4f3+      -0.0000    0.0005    0.0016   -0.0000    0.1250    0.0000    0.0000   -0.0000   -0.0000    0.0006
      115 V      5f3+       0.0000   -0.0002   -0.0001   -0.0000    0.3778    0.0000    0.0000   -0.0000   -0.0000    0.0018
      116 V      6f3+       0.0000    0.0002    0.0010   -0.0000    0.5072    0.0000    0.0000   -0.0000   -0.0000    0.0024
      117 V      7f3+       0.0000   -0.0001    0.0003   -0.0000    0.5486    0.0000    0.0000   -0.0000   -0.0000    0.0026
      118 V      8f3+       0.0000    0.0001    0.0005   -0.0000    0.4098    0.0000    0.0000   -0.0000   -0.0000    0.0019
      119 V      9f3+       0.0000   -0.0000    0.0003   -0.0000    0.3400    0.0000    0.0000   -0.0000   -0.0000    0.0016
      120 V      5g4-       0.0000    0.0000   -0.0000    0.0000    0.0000    0.0000   -0.0000   -0.0000   -0.0000   -0.0000
      121 V      6g4-      -0.0000   -0.0000    0.0000    0.0000   -0.0000   -0.0000    0.0000   -0.0000   -0.0000    0.0000
      122 V      7g4-       0.0000    0.0000   -0.0000    0.0000    0.0000    0.0000   -0.0000   -0.0000   -0.0000    0.0000
      123 V      8g4-      -0.0000   -0.0000    0.0000    0.0000    0.0000   -0.0000    0.0000   -0.0000   -0.0000    0.0000
      124 V      5g3-      -0.0000   -0.0000    0.0000    0.0002    0.0000    0.0000   -0.0000   -0.0000   -0.0000    0.0000
      125 V      6g3-       0.0000   -0.0000   -0.0000    0.0004    0.0000    0.0000   -0.0000   -0.0000    0.0000   -0.0000
      126 V      7g3-      -0.0000    0.0000    0.0000    0.0004    0.0000    0.0000   -0.0000   -0.0000    0.0000   -0.0000
      127 V      8g3-       0.0000   -0.0000   -0.0000    0.0003    0.0000    0.0000   -0.0000   -0.0000    0.0000   -0.0000
      128 V      5g2-       0.0000    0.0000   -0.0000   -0.0000   -0.0000    0.0002   -0.0000    0.0000    0.0000    0.0000
      129 V      6g2-      -0.0000   -0.0000    0.0000   -0.0000   -0.0000    0.0006   -0.0000   -0.0000   -0.0000    0.0000
      130 V      7g2-       0.0000   -0.0000   -0.0000   -0.0000   -0.0000    0.0006   -0.0000   -0.0000   -0.0000    0.0000
      131 V      8g2-      -0.0000    0.0000   -0.0000   -0.0000   -0.0000    0.0005   -0.0000   -0.0000   -0.0000    0.0000
      132 V      5g1-       0.0000    0.0000   -0.0000    0.0000    0.0000   -0.0000    0.0000    0.0003    0.0000    0.0000
      133 V      6g1-      -0.0000   -0.0000    0.0000    0.0000    0.0000    0.0000   -0.0000    0.0007    0.0000    0.0000
      134 V      7g1-       0.0000    0.0000    0.0000    0.0000    0.0000    0.0000   -0.0000    0.0007    0.0000    0.0000
      135 V      8g1-      -0.0000   -0.0000   -0.0000    0.0000    0.0000    0.0000   -0.0000    0.0006    0.0000    0.0000
      136 V      5g0        0.0000   -0.0007   -0.0000    0.0000   -0.0000    0.0000    0.0000    0.0000   -0.0000    0.0003
      137 V      6g0       -0.0000    0.0002   -0.0000   -0.0000    0.0000    0.0000    0.0000    0.0000   -0.0000    0.0008
      138 V      7g0        0.0000   -0.0004    0.0000   -0.0000    0.0000    0.0000    0.0000    0.0000   -0.0000    0.0008
      139 V      8g0       -0.0000    0.0001   -0.0000   -0.0000    0.0000    0.0000    0.0000    0.0000   -0.0000    0.0006
      140 V      5g1+      -0.0005    0.0000    0.0000   -0.0000    0.0000    0.0000    0.0000   -0.0000    0.0003    0.0000
      141 V      6g1+       0.0002   -0.0000   -0.0000   -0.0000    0.0000   -0.0000   -0.0000   -0.0000    0.0007    0.0000
      142 V      7g1+      -0.0003    0.0000    0.0000   -0.0000    0.0000   -0.0000   -0.0000   -0.0000    0.0007    0.0000
      143 V      8g1+       0.0001   -0.0000   -0.0000   -0.0000    0.0000   -0.0000   -0.0000   -0.0000    0.0006    0.0000
      144 V      5g2+       0.0000    0.0000   -0.0000   -0.0000   -0.0000    0.0000    0.0002    0.0000   -0.0000   -0.0000
      145 V      6g2+      -0.0000   -0.0000   -0.0000   -0.0000   -0.0000    0.0000    0.0006   -0.0000    0.0000   -0.0000
      146 V      7g2+       0.0000    0.0000   -0.0000   -0.0000   -0.0000    0.0000    0.0006   -0.0000    0.0000   -0.0000
      147 V      8g2+      -0.0000   -0.0000    0.0000   -0.0000   -0.0000    0.0000    0.0005   -0.0000    0.0000   -0.0000
      148 V      5g3+       0.0000   -0.0004   -0.0003   -0.0000    0.0002    0.0000    0.0000   -0.0000   -0.0000    0.0000
      149 V      6g3+      -0.0000    0.0001    0.0003   -0.0000    0.0004    0.0000    0.0000   -0.0000   -0.0000   -0.0000
      150 V      7g3+       0.0000   -0.0002   -0.0002   -0.0000    0.0004    0.0000    0.0000   -0.0000   -0.0000   -0.0000
      151 V      8g3+      -0.0000    0.0001    0.0001   -0.0000    0.0003    0.0000    0.0000   -0.0000   -0.0000   -0.0000
      152 V      5g4+      -0.0004   -0.0000   -0.0000    0.0000    0.0000   -0.0000   -0.0000    0.0000   -0.0000    0.0000
      153 V      6g4+       0.0001    0.0000    0.0000    0.0000    0.0000    0.0000    0.0000    0.0000   -0.0000   -0.0000
      154 V      7g4+      -0.0002   -0.0000    0.0000    0.0000    0.0000   -0.0000   -0.0000    0.0000   -0.0000   -0.0000
      155 V      8g4+       0.0001    0.0000   -0.0000    0.0000    0.0000    0.0000    0.0000    0.0000   -0.0000   -0.0000
      156 V      6h5-      -0.0000   -0.0000    0.0000   -0.0000   -0.0000    0.0000   -0.0000    0.0000    0.0000    0.0000
      157 V      7h5-       0.0000    0.0000   -0.0000   -0.0000    0.0000    0.0000   -0.0000   -0.0000   -0.0000    0.0000
[...]
         2   14       2.12095768E-05  3.73343580E-02  1.12927168E+04  3.67603599E-12  1.12927541E+04
         2   16       9.70951687E-04  2.92726550E-08  5.21675326E+05  5.37441528E-15  5.21675326E+05
         2   18       9.70951830E-04  5.21675416E+05  2.92528977E-08  1.45263237E-06  5.21675416E+05
         3    7       6.50286509E-05  1.65593795E-10  5.30750517E+00  6.41301269E-19  5.30750517E+00
         3    9       1.93136948E-01  2.72077370E-04  8.72029393E+06  2.16796446E-13  8.72029393E+06
         3   11       3.01636371E-01  1.49236946E+02  4.54193757E+07  7.94276019E+00  4.54195328E+07
         3   13       3.17493375E-01  4.54192839E+07  1.49237268E+02  2.38780163E+06  4.78072347E+07
         3   15       3.20760939E-01  2.47289333E+06  8.38809867E-05  4.66546243E+07  4.91275177E+07
         3   17       1.61459374E-02  8.38151600E-05  2.47290043E+06  1.33482768E-03  2.47290043E+06
         4    8       6.50286509E-05  1.65593795E-10  5.30750517E+00  6.41301269E-19  5.30750517E+00
         4   10       1.93136948E-01  2.72077370E-04  8.72029393E+06  2.16796446E-13  8.72029393E+06
         4   12       3.01636371E-01  1.49236946E+02  4.54193757E+07  7.94276019E+00  4.54195328E+07
         4   14       3.17493375E-01  4.54192839E+07  1.49237268E+02  2.38780163E+06  4.78072347E+07
         4   16       3.20760939E-01  2.47289333E+06  8.38809867E-05  4.66546243E+07  4.91275177E+07
         4   18       1.61459374E-02  8.38151600E-05  2.47290043E+06  1.33482768E-03  2.47290043E+06
         5    7       6.50284956E-05  5.30746248E+00  1.65597402E-10  1.77540151E-13  5.30746248E+00
         5    9       1.93136943E-01  8.72029160E+06  2.72077255E-04  1.10393543E-06  8.72029161E+06
         5   11       3.17492850E-01  4.54192216E+07  1.49236949E+02  2.38777858E+06  4.78071494E+07
         5   13       3.01635797E-01  1.49236753E+02  4.54192833E+07  7.94267665E+00  4.54194405E+07
         5   15       1.61458404E-02  8.38610094E-05  2.47288514E+06  1.33484860E-03  2.47288514E+06
         5   17       3.20760785E-01  2.47284716E+06  8.38371250E-05  4.66546428E+07  4.91274900E+07
         6    8       6.50284956E-05  5.30746248E+00  1.65597402E-10  1.77540151E-13  5.30746248E+00
         6   10       1.93136943E-01  8.72029160E+06  2.72077255E-04  1.10393543E-06  8.72029161E+06
         6   12       3.17492850E-01  4.54192216E+07  1.49236949E+02  2.38777858E+06  4.78071494E+07
         6   14       3.01635797E-01  1.49236753E+02  4.54192833E+07  7.94267665E+00  4.54194405E+07
         6   16       1.61458404E-02  8.38610094E-05  2.47288514E+06  1.33484860E-03  2.47288514E+06
         6   18       3.20760785E-01  2.47284716E+06  8.38371250E-05  4.66546428E+07  4.91274900E+07
         7    9       1.92462460E-01  1.06021849E-06  2.15056645E-13  7.96662127E+06  7.96662127E+06
         7   11       1.57357902E-02  2.26039735E+06  7.47300789E+00  1.16728264E-04  2.26040482E+06
         7   13       1.57358393E-02  7.47296618E+00  2.26040440E+06  3.96638392E-10  2.26041187E+06
         7   15       2.98217282E-01  2.44324328E-06  4.35903262E+07  8.48970014E-13  4.35903262E+07
         7   17       2.98217336E-01  4.35903364E+07  2.44570579E-06  2.73692047E-04  4.35903364E+07
         8   10       1.92462460E-01  1.06021849E-06  2.15056645E-13  7.96662127E+06  7.96662127E+06
         8   12       1.57357902E-02  2.26039735E+06  7.47300789E+00  1.16728264E-04  2.26040482E+06
         8   14       1.57358393E-02  7.47296618E+00  2.26040440E+06  3.96638392E-10  2.26041187E+06
         8   16       2.98217282E-01  2.44324328E-06  4.35903262E+07  8.48970014E-13  4.35903262E+07
         8   18       2.98217336E-01  4.35903364E+07  2.44570579E-06  2.73692047E-04  4.35903364E+07
         9   11       1.63509026E-04  5.03928295E+03  1.66598861E-02  4.36950826E-10  5.03929961E+03
         9   13       1.63507104E-04  1.66600871E-02  5.03922371E+03  2.19264654E-15  5.03924037E+03
         9   15       5.44543281E-04  9.78345321E-10  1.74220767E+04  1.42566082E-18  1.74220767E+04
         9   17       5.44545710E-04  1.74221562E+04  9.77147274E-10  2.34383864E-08  1.74221562E+04
        10   12       1.63509026E-04  5.03928295E+03  1.66598861E-02  4.36950826E-10  5.03929961E+03
        10   14       1.63507104E-04  1.66600871E-02  5.03922371E+03  2.19264654E-15  5.03924037E+03
        10   16       5.44543281E-04  9.78345321E-10  1.74220767E+04  1.42566082E-18  1.74220767E+04
        10   18       5.44545710E-04  1.74221562E+04  9.77147274E-10  2.34383864E-08  1.74221562E+04
     -----------------------------------------------------------------------------------------------
--

++ Velocity transition strengths (SO states):
   ------------------------------------------
    for osc. strength at least    1.0000000000000001E-005

      From   To        Osc. strength     Einstein coefficients Ax, Ay, Az (sec-1)    Total A (sec-1)
     -----------------------------------------------------------------------------------------------
         1    3       3.41180345E-01  1.24246409E-03  3.98219514E+07  1.06325543E-12  3.98219514E+07
         1    5       3.41180360E-01  3.98219591E+07  1.24246408E-03  5.25916078E-06  3.98219591E+07
         1    7       3.43545380E-01  5.41115668E-06  1.06814023E-12  4.22467225E+07  4.22467225E+07
         1    9       9.56709834E-04  2.11224562E-07  1.67651253E-15  2.93765316E+05  2.93765316E+05
         1   11       1.64627509E-05  8.76537194E+03  2.89786612E-02  1.02956690E-06  8.76540092E+03
         1   13       1.64627086E-05  2.89787132E-02  8.76534940E+03  3.26270043E-12  8.76537838E+03
         1   15       8.37787255E-04  2.52486502E-08  4.50129975E+05  8.42119856E-16  4.50129975E+05
         1   17       8.37787412E-04  4.50130071E+05  2.52442789E-08  1.19675563E-06  4.50130071E+05
         2    4       3.41180345E-01  1.24246409E-03  3.98219514E+07  1.06325543E-12  3.98219514E+07
         2    6       3.41180360E-01  3.98219591E+07  1.24246408E-03  5.25916078E-06  3.98219591E+07
         2    8       3.43545380E-01  5.41115668E-06  1.06814023E-12  4.22467225E+07  4.22467225E+07
         2   10       9.56709834E-04  2.11224562E-07  1.67651253E-15  2.93765316E+05  2.93765316E+05
         2   12       1.64627509E-05  8.76537194E+03  2.89786612E-02  1.02956690E-06  8.76540092E+03
         2   14       1.64627086E-05  2.89787132E-02  8.76534940E+03  3.26270043E-12  8.76537838E+03
         2   16       8.37787255E-04  2.52486502E-08  4.50129975E+05  8.42119856E-16  4.50129975E+05
         2   18       8.37787412E-04  4.50130071E+05  2.52442789E-08  1.19675563E-06  4.50130071E+05
         3    7       1.66376683E-04  4.23810854E-10  1.35793709E+01  1.39911993E-17  1.35793709E+01
         3    9       2.21626412E-01  3.12212217E-04  1.00066517E+07  2.28759449E-13  1.00066517E+07
         3   11       1.41146375E-01  6.98335149E+01  2.12534135E+07  3.72392438E+00  2.12534871E+07
         3   13       1.48580834E-01  2.12533713E+07  6.98336628E+01  1.11950914E+06  2.23729503E+07
         3   15       1.50064379E-01  1.15348145E+06  3.91255659E-05  2.18303522E+07  2.29838337E+07
         3   17       7.53124782E-03  3.90960523E-05  1.15348463E+06  6.24584322E-04  1.15348463E+06
         4    8       1.66376683E-04  4.23810854E-10  1.35793709E+01  1.39911993E-17  1.35793709E+01
         4   10       2.21626412E-01  3.12212217E-04  1.00066517E+07  2.28759449E-13  1.00066517E+07
         4   12       1.41146375E-01  6.98335149E+01  2.12534135E+07  3.72392438E+00  2.12534871E+07
         4   14       1.48580834E-01  2.12533713E+07  6.98336628E+01  1.11950914E+06  2.23729503E+07
         4   16       1.50064379E-01  1.15348145E+06  3.91255659E-05  2.18303522E+07  2.29838337E+07
         4   18       7.53124782E-03  3.90960523E-05  1.15348463E+06  6.24584322E-04  1.15348463E+06
         5    7       1.66377666E-04  1.35793744E+01  4.23530999E-10  3.96637896E-11  1.35793744E+01
         5    9       2.21626421E-01  1.00066497E+07  3.12212376E-04  1.28842746E-06  1.00066497E+07
         5   11       1.48580572E-01  2.12533398E+07  6.98335057E+01  1.11949818E+06  2.23729079E+07
         5   13       1.41146091E-01  6.98334168E+01  2.12533679E+07  3.72388467E+00  2.12534415E+07
         5   15       7.53120227E-03  3.91171068E-05  1.15347745E+06  6.24594473E-04  1.15347745E+06
         5   17       1.50064286E-01  1.15345985E+06  3.91058515E-05  2.18303577E+07  2.29838175E+07
         6    8       1.66377666E-04  1.35793744E+01  4.23530999E-10  3.96637896E-11  1.35793744E+01
         6   10       2.21626421E-01  1.00066497E+07  3.12212376E-04  1.28842746E-06  1.00066497E+07
         6   12       1.48580572E-01  2.12533398E+07  6.98335057E+01  1.11949818E+06  2.23729079E+07
         6   14       1.41146091E-01  6.98334168E+01  2.12533679E+07  3.72388467E+00  2.12534415E+07
         6   16       7.53120227E-03  3.91171068E-05  1.15347745E+06  6.24594473E-04  1.15347745E+06
         6   18       1.50064286E-01  1.15345985E+06  3.91058515E-05  2.18303577E+07  2.29838175E+07
         7    9       2.25480155E-01  1.22454982E-06  2.71832318E-13  9.33335905E+06  9.33335905E+06
         7   11       7.03483907E-03  1.01053628E+06  3.34089294E+00  5.30862714E-05  1.01053962E+06
         7   13       7.03486069E-03  3.34087418E+00  1.01053938E+06  1.80566090E-10  1.01054273E+06
         7   15       1.32159222E-01  1.08274832E-06  1.93177391E+07  4.42291409E-13  1.93177391E+07
         7   17       1.32159246E-01  1.93177435E+07  1.08386869E-06  1.22847858E-04  1.93177435E+07
         8   10       2.25480155E-01  1.22454982E-06  2.71832318E-13  9.33335905E+06  9.33335905E+06
         8   12       7.03483907E-03  1.01053628E+06  3.34089294E+00  5.30862714E-05  1.01053962E+06
         8   14       7.03486069E-03  3.34087418E+00  1.01053938E+06  1.80566090E-10  1.01054273E+06
         8   16       1.32159222E-01  1.08274832E-06  1.93177391E+07  4.42291409E-13  1.93177391E+07
         8   18       1.32159246E-01  1.93177435E+07  1.08386869E-06  1.22847858E-04  1.93177435E+07
         9   11       1.25710943E-04  3.87437459E+03  1.28087413E-02  5.26844013E-08  3.87438740E+03
         9   13       1.25709823E-04  1.28088494E-02  3.87434006E+03  1.67735696E-13  3.87435287E+03
         9   15       1.59626115E-04  2.86153740E-10  5.10708366E+03  7.80617873E-17  5.10708366E+03
         9   17       1.59625404E-04  5.10706141E+03  2.86478953E-10  1.02253192E-07  5.10706141E+03
        10   12       1.25710943E-04  3.87437459E+03  1.28087413E-02  5.26844013E-08  3.87438740E+03
        10   14       1.25709823E-04  1.28088494E-02  3.87434006E+03  1.67735696E-13  3.87435287E+03
        10   16       1.59626115E-04  2.86153740E-10  5.10708366E+03  7.80617873E-17  5.10708366E+03
        10   18       1.59625404E-04  5.10706141E+03  2.86478953E-10  1.02253192E-07  5.10706141E+03
        11   15       2.65122334E-03  9.61815284E-05  2.90999674E+01  5.46067473E-04  2.91006097E+01
        11   17       1.76955509E-02  2.91010974E+01  9.61826458E-05  1.65131465E+02  1.94232659E+02
        12   16       2.65122334E-03  9.61815284E-05  2.90999674E+01  5.46067473E-04  2.91006097E+01
        12   18       1.76955509E-02  2.91010974E+01  9.61826458E-05  1.65131465E+02  1.94232659E+02
        13   15       1.76953874E-02  2.91002148E+01  9.61807428E-05  1.65129482E+02  1.94229793E+02
        13   17       2.65126244E-03  9.61844047E-05  2.91005569E+01  5.46074030E-04  2.91011992E+01
        14   16       1.76953874E-02  2.91002148E+01  9.61807428E-05  1.65129482E+02  1.94229793E+02
        14   18       2.65126244E-03  9.61844047E-05  2.91005569E+01  5.46074030E-04  2.91011992E+01
     -----------------------------------------------------------------------------------------------
--

++ Length and velocity gauge comparison (SO states):

 --------------------------------------------------
 A comparison between the dipole oscillator strengths in 
 length and velocity gauge will be performed

 All dipole oscillator differences above the tolerance of   0.10000000000000001       will be printed 

 Due to basis set deficiency these oscillator may be problematic 

 The tolerance is defined as ABS(1-O_l/O_v) 
 O_l : dipole oscillator strength in length gauge
 O_p : dipole oscillator strength in velocity gauge
 --------------------------------------------------

  Problematic transitions have been found

      From   To       Difference (%) Osc. st. (len.) Osc. st. (vel.)
     ---------------------------------------------------------------
         1   11            28.834100  2.12096369E-05  1.64627509E-05
         1   13            28.834066  2.12095768E-05  1.64627086E-05
         1   15            15.894779  9.70951687E-04  8.37787255E-04
         1   17            15.894774  9.70951830E-04  8.37787412E-04
         2   12            28.834100  2.12096369E-05  1.64627509E-05
         2   14            28.834066  2.12095768E-05  1.64627086E-05
         2   16            15.894779  9.70951687E-04  8.37787255E-04
         2   18            15.894774  9.70951830E-04  8.37787412E-04
         3    7            60.914805  6.50286509E-05  1.66376683E-04
         3    9            12.854724  1.93136948E-01  2.21626412E-01
         3   11           113.704653  3.01636371E-01  1.41146375E-01
         3   13           113.683937  3.17493375E-01  1.48580834E-01
         3   15           113.748886  3.20760939E-01  1.50064379E-01
         3   17           114.385953  1.61459374E-02  7.53124782E-03
         4    8            60.914805  6.50286509E-05  1.66376683E-04
         4   10            12.854724  1.93136948E-01  2.21626412E-01
         4   12           113.704653  3.01636371E-01  1.41146375E-01
         4   14           113.683937  3.17493375E-01  1.48580834E-01
         4   16           113.748886  3.20760939E-01  1.50064379E-01
         4   18           114.385953  1.61459374E-02  7.53124782E-03
         5    7            60.915129  6.50284956E-05  1.66377666E-04
         5    9            12.854730  1.93136943E-01  2.21626421E-01
         5   11           113.683960  3.17492850E-01  1.48580572E-01
         5   13           113.704677  3.01635797E-01  1.41146091E-01
         5   15           114.385962  1.61458404E-02  7.53120227E-03
         5   17           113.748916  3.20760785E-01  1.50064286E-01
         6    8            60.915129  6.50284956E-05  1.66377666E-04
         6   10            12.854730  1.93136943E-01  2.21626421E-01
         6   12           113.683960  3.17492850E-01  1.48580572E-01
         6   14           113.704677  3.01635797E-01  1.41146091E-01
         6   16           114.385962  1.61458404E-02  7.53120227E-03
         6   18           113.748916  3.20760785E-01  1.50064286E-01
         7    9            14.643282  1.92462460E-01  2.25480155E-01
         7   11           123.683727  1.57357902E-02  7.03483907E-03
         7   13           123.683737  1.57358393E-02  7.03486069E-03
         7   15           125.649998  2.98217282E-01  1.32159222E-01
         7   17           125.649998  2.98217336E-01  1.32159246E-01
         8   10            14.643282  1.92462460E-01  2.25480155E-01
         8   12           123.683727  1.57357902E-02  7.03483907E-03
         8   14           123.683737  1.57358393E-02  7.03486069E-03
         8   16           125.649998  2.98217282E-01  1.32159222E-01
         8   18           125.649998  2.98217336E-01  1.32159246E-01
         9   11            30.067456  1.63509026E-04  1.25710943E-04
         9   13            30.067086  1.63507104E-04  1.25709823E-04
         9   15           241.136712  5.44543281E-04  1.59626115E-04
         9   17           241.139754  5.44545710E-04  1.59625404E-04
        10   12            30.067456  1.63509026E-04  1.25710943E-04
        10   14            30.067086  1.63507104E-04  1.25709823E-04
        10   16           241.136712  5.44543281E-04  1.59626115E-04
        10   18           241.139754  5.44545710E-04  1.59625404E-04
        11   15      --------------- below threshold  2.65122334E-03
        11   17      --------------- below threshold  1.76955509E-02
        12   16      --------------- below threshold  2.65122334E-03
        12   18      --------------- below threshold  1.76955509E-02
        13   15      --------------- below threshold  1.76953874E-02
        13   17      --------------- below threshold  2.65126244E-03
        14   16      --------------- below threshold  1.76953874E-02
        14   18      --------------- below threshold  2.65126244E-03
     ---------------------------------------------------------------

 Number of problematic transitions =                    58

--

 Electric-dipole - electric-octupole not included
++ I/O STATISTICS
 
  I. General I/O information
  - - - - - - - - - - - - - - - - - - - - - - - - - - - - - - - - - - - - - - - - - - -
  Unit  Name          Flsize      Write/Read            MBytes           Write/Read
                      (MBytes)       Calls              In/Out           Time, sec.
  - - - - - - - - - - - - - - - - - - - - - - - - - - - - - - - - - - - - - - - - - - -
   1  SCRATCH           0.00 .       9/      45 .      0.0/      0.0 .       0/       0
   2  ANNI              0.00 .       0/       0 .      0.0/      0.0 .       0/       0
   3  RUNFILE          14.79 .     322/   10031 .      2.3/     72.7 .       0/       0
   4  ONEINT            5.45 .       0/   23543 .      0.0/   3734.6 .       0/       0
   5  JOBIPH            6.30 .       0/      92 .      0.0/      0.8 .       0/       0
   6  ORDINT          473.53 .       1/    3789 .      0.0/    947.0 .       0/       0
  - - - - - - - - - - - - - - - - - - - - - - - - - - - - - - - - - - - - - - - - - - -
   *  TOTAL           500.08 .     332/   37500 .      2.3/   4755.1 .       0/       0
  - - - - - - - - - - - - - - - - - - - - - - - - - - - - - - - - - - - - - - - - - - -
 
  II. I/O Access Patterns
  - - - - - - - - - - - - - - - - - - - -
  Unit  Name               % of random
                         Write/Read calls
  - - - - - - - - - - - - - - - - - - - -
   1  SCRATCH             88.9/ 100.0
   2  ANNI                 0.0/   0.0
   3  RUNFILE             28.6/  10.8
   4  ONEINT               0.0/  16.4
   5  JOBIPH               0.0/  76.1
   6  ORDINT             100.0/   0.1
  - - - - - - - - - - - - - - - - - - - -
--
--- Stop Module: rassi at Thu Jan  9 20:23:39 2025 /rc=_RC_ALL_IS_WELL_ ---
*** files: xmldump
    saved to directory /home4/s4752295/Internship/Initial_simulations/Point_charge_model/1_electron/active_space_9_non_rel/V/varying_bond_length
--- Module rassi spent 3 seconds ---

.##################.
.# Happy landing! #.
.##################.

    Timing: Wall=47.95 User=37.69 System=7.72

###############################################################################
Hbrk Cluster
Job 14548091 for user s4752295
Finished at: Thu Jan  9 20:23:39 CET 2025

Job details:
============

Job ID                         : 14548091
Name                           : V_no_c_light
User                           : s4752295
Partition                      : regularmedium
Nodes                          : node99
Number of Nodes                : 1
Cores                          : 1
Number of Tasks                : 1
State                          : RUNNING  
Submit                         : 2025-01-09T20:22:46
Start                          : 2025-01-09T20:22:47
End                            : --
Reserved walltime              : 15:00:00
Used walltime                  : 00:00:52
Used CPU time                  : -- 
% User (Computation)           : --
% System (I/O)                 : --
Total memory reserved          : 25000M
Maximum memory used            : --

Acknowledgements:
=================

Please see this page for information about acknowledging Hbrk in your publications:

https://wiki.hpc.rug.nl/habrok/introduction/scientific_output

################################################################################
