   This run of MOLCAS is using the pymolcas driver

                             OPE
                             OPE          NMOL  CASOP  ENMOLC A   SO
                 OPE        NMOLC        AS  OP EN  MO LC     AS  OP
                OPENM       OL CA        SO  PE NM  OL CA     SOP EN
                OP EN      MO   LC       AS  OP ENMOL  CASO   PENMOL
                OP  EN     MO   LC       AS  OP EN     MO     LC ASO
               OP   E  NMOL  C  AS       OP  EN MO     LC     AS  OP
               OP  E   NMO   LC AS        OPEN  MO     LCASOP EN   M
               O  PEN   MO  LCA  SO
            OPE   NMO   L   CAS    OP
        OPENMOL  CASOP     ENMOL   CASOPE
     OPENMOLCA   SOPENMOLCASOPEN   MOLCASOPE
    OPENMOLCAS   OP           EN   MOL    CAS
    OPENMOLCAS       OP  ENM        O     LCA
    OPENMOLCAS    OPEN  MOLCASO     P  E  NMO
    OPENMOLCAS     OP               E  N  MOL
    OPENMOLCA   SO           PENM   O  L  CAS    OPEN    MO    LCAS
    OPENMOLCA   SOP           ENM   O  L  CAS   OP  EN  MOLC  AS   O
    OPENMOLCA   SOPE           NM      O  LCA   S      OP  EN MO
    OPENMOLC                AS         O  PEN   M      OL  CA  SOPE
    OPENMO        LCASOPE  NMOL        C  ASO   P      ENMOLC     AS
    OPE     NMO      LCA  SO     P     E   NM   OL  CA SO  PE N   MO
          OPENMOLCA            SOPE   NMO        LCAS  O    P  ENMO
     OPENMOLCASOPENMOLCASOPENMOLCASOPENMOLCA
        OPENMOLCASOPENMOLCASOPENMOLCASOPE
            OPENMOLCASOPENMOLCASOPENM
               OPENMOLCASOPENMOLCA        version: o91e1abe7de707b ?
                   OPENMOLCASO
                       OPE                tag:

 OpenMolcas is free software; you can redistribute it and/or modify it
 under the terms of the GNU Lesser General Public License version 2.1.
 OpenMolcas is distributed in the hope that it will be useful, but it
 is provided "as is" and without any express or implied warranties.
 For more details see the full text of the license in the file
 LICENSE or in <http://www.gnu.org/licenses/>.

                 Copyright (C) The OpenMolcas Authors
           For the author list and the recommended citation,
                   consult the file CONTRIBUTORS.md

           *************************************************
           * pymolcas version py2.10                       *
           *   build 3068ae8b88c9345ec6cfef6fef7f1169      *
           *   (after the EMIL interpreter by V. Veryazov) *
           *************************************************

configuration info
------------------
Host name: login1 (Linux)
C Compiler ID: GNU
C flags: -std=gnu99
Fortran Compiler ID: GNU
Fortran flags: -fno-aggressive-loop-optimizations -cpp -fdefault-integer-8 -fmax-stack-var-size=1048576
Definitions: _MOLCAS_;_I8_;_LINUX_;_MKL_
Parallel: OFF (GA=OFF)


   ---------------------------------------------------------------------------------------------------------------------------------------------
  |
  |           Project: vanadium_so_cf
  |    Submitted from: /home4/s4752295/Internship/Initial_simulations/Point_charge_model/1_electron/active_space_9_non_rel/V/varying_bond_length
  |      Scratch area: /tmp/vanadium_so_cf
  |   Save outputs to: /home4/s4752295/Internship/Initial_simulations/Point_charge_model/1_electron/active_space_9_non_rel/V/varying_bond_length
  |            Molcas: /home4/s4752295/Internship/Molcas/recomp_try/OpenMolcas-master/build
  |
  | Scratch area is empty
  |
  |    MOLCAS_DRIVER = /home4/s4752295/Internship/Molcas/bin/pymolcas
  |    MOLCAS_NPROCS = 1
  |    MOLCAS_SOURCE = /home4/s4752295/Internship/Molcas/recomp_try/OpenMolcas-master
  | MOLCAS_STRUCTURE = 0
  |
   ---------------------------------------------------------------------------------------------------------------------------------------------

++ ---------   Input file   ---------

&SEWARD
AMFi

CLIG
$R

Basis Set
V.ANO-rcc.Roos.21s15p10d6f4g2h.10s9p8d6f4g2h.
Spherical d
V            0.0        0.0     0.0
End of Basis

Xfield

4
0.000000,  0.0000,  0.210       -1.0
0.181865,  0.0000, -0.105       -1.0
-0.090933,  0.1575, -0.105      -1.0
-0.090933, -0.1575, -0.105      -1.0

End of input

&SCF
Occupied
9
Iterations
   50  100
End of Input

&RASSCF
LumOrb
Symmetry
1
Spin
2
Nactel
1 0 0
CIRoot
9 9 1
inactive
9
ras2
9
End of Input

>>> COPY vanadium_so_cf.JobIph $SLURM_SUBMIT_DIR/vanadium_so_cf.doublet.JobIph

>>> COPY $SLURM_SUBMIT_DIR/vanadium_so_cf.doublet.JobIph ./JOB002

&RASSI
NROFJobIph
1 All
SpinOrbit
End of Input

EOF

-- ----------------------------------

--- Start Module: seward at Thu Jan  9 21:05:38 2025 ---

()()()()()()()()()()()()()()()()()()()()()()()()()()()()()()()()()()()()()()()()()()()()()()()()()()

                                              &SEWARD

                                   only a single process is used
                       available to each process: 4.1 GB of memory, 1 thread?
                                             pid: 90384
()()()()()()()()()()()()()()()()()()()()()()()()()()()()()()()()()()()()()()()()()()()()()()()()()()

 The speed of LIGHT in this CALCULATION =   137.03599917700001     
               SEWARD will generate:
                  Multipole Moment integrals up to order  2
                  Kinetic Energy integrals
                  Nuclear Attraction integrals (point charge)
                  One-Electron Hamiltonian integrals
                  Velocity integrals
                  Relativistic Douglas-Kroll-Hess integrals:
                    - Parametrization         : EXP
                    - DKH order of Hamiltonian: 2
                    - DKH order of Properties : 0
                         - multipole moment operators
                         - electric potential operators
                         - contact operators
                  External field from     4 point(s) added to the one-electron Hamiltonian
                  Orbital angular momentum around ( 0.0000  0.0000  0.0000 )
                  Velocity quadrupole around ( 0.0000  0.0000  0.0000 )
                  Atomic mean-field integrals
                  Two-Electron Repulsion integrals

                   Integrals are discarded if absolute value <: 0.10E-13
                   Integral cutoff threshold is set to       <: 0.10E-15

++    Symmetry information:
      ---------------------

                    Character Table for C1 

                             E  
                    a        1  x, y, xy, Rz, z, xz, Ry, yz, Rx, I
--


++    Basis set information:
      ----------------------


      Basis set label: V.ANO-RCC.ROOS.21S15P10D6F4G2H.10S9P8D6F4G2H......

      Electronic valence basis set:
      ------------------
      Associated Effective Charge  23.000000 au
      Associated Actual Charge     23.000000 au
      Nuclear Model: Point charge

      Shell  nPrim  nBasis  Cartesian Spherical Contaminant
         s      21      10        X                  
         p      15       9        X                  
         d      10       8                 X         
         f       6       6                 X         
         g       4       4                 X         
         h       2       2                 X         
--


++    Molecular structure info:
      -------------------------

                    ************************************************ 
                    **** Cartesian Coordinates / Bohr, Angstrom **** 
                    ************************************************ 

     Center  Label                x              y              z                     x              y              z
        1      V                0.000000       0.000000       0.000000              0.000000       0.000000       0.000000
--


++    Operator info:
      --------------


  Net charge from external field:   -4.0000000000000000     
--


            Nuclear Potential Energy              0.00000000 au

                    Nuclear-External Field Potential Energy    -438.09523909 au
                    External Field Potential Energy              17.77167056 au 


            Total Nuclear Potential Energy           -438.09523909 au


      Basis set specifications :
      Symmetry species         a  
      Basis functions          177

 Sorry, Molden does not know how to handle
 functions with angular momentum larger than g
Note: The following floating-point exceptions are signalling: IEEE_UNDERFLOW_FLAG IEEE_DENORMAL
--- Stop Module: seward at Thu Jan  9 21:05:47 2025 /rc=_RC_ALL_IS_WELL_ ---
*** files: vanadium_so_cf.GssOrb xmldump
    saved to directory /home4/s4752295/Internship/Initial_simulations/Point_charge_model/1_electron/active_space_9_non_rel/V/varying_bond_length
--- Module seward spent 8 seconds ---

*** symbolic link created: INPORB -> vanadium_so_cf.GssOrb
--- Start Module: scf at Thu Jan  9 21:05:47 2025 ---

()()()()()()()()()()()()()()()()()()()()()()()()()()()()()()()()()()()()()()()()()()()()()()()()()()

                                                &SCF

                                   only a single process is used
                       available to each process: 4.1 GB of memory, 1 thread?
                                             pid: 90388
()()()()()()()()()()()()()()()()()()()()()()()()()()()()()()()()()()()()()()()()()()()()()()()()()()

++    Input section:
      --------------

      Header of the integral files:
      
       Integrals generated by seward 4.2.0  , Thu Jan  9 21:05:39 2025


      Cartesian coordinates in Angstrom:
      -----------------------------------------------------
      No.  Label        X            Y            Z        
      -----------------------------------------------------
       1   V          0.00000000   0.00000000   0.00000000
      -----------------------------------------------------
      Nuclear repulsion energy = -438.09523909
--

++    Orbital specifications:
      -----------------------

      Symmetry species               1
                                     a
      Frozen orbitals                0
      Occupied orbitals              9
      Secondary orbitals           168
      Deleted orbitals               0
      Total number of orbitals     177
      Number of basis functions    177
--

      Molecular charge                           5.000

++    Optimization specifications:
      ----------------------------

      SCF Algorithm: Conventional
      Minimized density differences are used
      Number of density matrices in core                5
      Maximum number of NDDO SCF iterations            50
      Maximum number of HF SCF iterations             100
      Threshold for SCF energy change            0.10E-08
      Threshold for density matrix               0.10E-03
      Threshold for Fock matrix                  0.15E-03
      Threshold for linear dependence            0.10E-08
      Threshold at which DIIS is turned on       0.15E+00
      Threshold at which QNR/C2DIIS is turned on 0.75E-01
      Threshold for Norm(delta) (QNR/C2DIIS)     0.20E-04
      DIIS extrapolation of the SCF procedure
      All orbitals punched on: SCFORB
--

      Detected guessorb starting orbitals                                             


++ Convergence information
                                   SCF        iterations: Energy and convergence statistics

Iter     Tot. SCF        One-elec.       Two-elec.     Energy      Max Dij or  Max Fij      DNorm      TNorm      AccCon     Time
         Energy          Energy          Energy        Change      Delta Norm                                                in Sec.

 The total and one-electron energies are shifted by a value of      1000. a.u.

   1  -184.477212126   -35.861740652   289.479767612   0.00E+00    0.53E+00*   0.30E+01*    0.60E+01   0.22E+03   None         1.
   2  -191.289710275    18.341968187   228.463560624  -0.68E+01*   0.26E+00*   0.53E+00*    0.37E+01   0.20E+03   EDIIS        1.
   3  -192.013845769    -2.479122418   248.560515734  -0.72E+00*   0.78E-01*   0.16E+00*    0.69E+00   0.21E+03   EDIIS        1.
   4  -192.073529877     2.971235049   243.050474160  -0.60E-01*   0.21E-01*   0.43E-01*    0.10E+00   0.21E+03   EDIIS        1.
   5  -192.077702731     1.479519786   244.538016568  -0.42E-02*   0.14E-02*   0.91E-02*    0.90E-02   0.21E+03   c2DIIS       1.
   6  -192.078012982     1.779639767   244.237586336  -0.31E-03*   0.32E-03*   0.39E-03*    0.92E-03   0.21E+03   QNRc2DIIS    1.
   7  -192.078013470     1.784597719   244.232627896  -0.49E-06*   0.12E-03*   0.43E-04     0.24E-03   0.21E+03   QNRc2DIIS    1.
   8  -192.078013504     1.782914285   244.234311296  -0.33E-07*   0.17E-04    0.90E-05     0.46E-04   0.21E+03   QNRc2DIIS    1.
   9  -192.078013505     1.783141931   244.234083649  -0.12E-08*   0.76E-05    0.32E-05     0.67E-04   0.21E+03   QNRc2DIIS    1.
  10  -192.078013505     1.783152846   244.234072735  -0.11E-09    0.15E-06    0.16E-06     0.64E-03   0.21E+03   QNRc2DIIS    1.

       Convergence after 10 Macro Iterations
--

 *****************************************************************************************************************************
 *                                                                                                                           *
 *                                             SCF/KS-DFT Program, Final results                                             *
 *                                                                                                                           *
 *                                                                                                                           *
 *                                                                                                                           *
 *                                                       Final Results                                                       *
 *                                                                                                                           *
 *****************************************************************************************************************************

::    Total SCF energy                              -1192.0780135051
      One-electron energy                            -998.2168471544
      Two-electron energy                             244.2340727347
      Nuclear repulsion energy                       -438.0952390854
      Kinetic energy (interpolated)                   861.3397023259
      Virial theorem                                    1.3839812681
      Total spin, S(S+1)                                0.0000000000
      Total spin, S                                     0.0000000000
      Max non-diagonal density matrix element           0.0000001445
      Max non-diagonal Fock matrix element              0.0000000343


      All orbitals with orbital energies smaller than  E(LUMO)+0.5 are printed

++    Molecular orbitals:
      -------------------

      Title: SCF orbitals

      Molecular orbitals for symmetry species 1: a  

          Orbital            1         2         3         4         5         6         7         8         9        10    
          Energy         -193.5627  -17.5836  -12.9068  -12.9068  -12.1277   -2.2209   -1.2080   -1.2080   -1.1498   -0.1569
          Occ. No.          2.0000    2.0000    2.0000    2.0000    2.0000    2.0000    2.0000    2.0000    2.0000    0.0000

        1 V      1s         1.0000    0.0009    0.0000    0.0000   -0.0013   -0.0004   -0.0000    0.0000    0.0003    0.0001
        2 V      2s        -0.0012    0.9875   -0.0000   -0.0000   -0.1027   -0.0662    0.0000   -0.0000    0.0085    0.0118
        3 V      3s         0.0005    0.0850   -0.0000   -0.0000   -0.0252    0.9574   -0.0000    0.0000   -0.0501   -0.0726
        4 V      4s        -0.0001   -0.0158    0.0000    0.0000    0.0043    0.1358   -0.0000    0.0000   -0.0320    0.9303
        5 V      5s         0.0001    0.0185   -0.0000   -0.0000   -0.0049   -0.1254    0.0000   -0.0000    0.0235    0.3377
        6 V      6s        -0.0005   -0.0527    0.0000    0.0000    0.0134    0.1969   -0.0000    0.0000   -0.0269   -0.0810
        7 V      7s         0.0004    0.0350   -0.0000   -0.0000   -0.0084   -0.0346   -0.0000    0.0000   -0.0003   -0.0588
        8 V      8s        -0.0007   -0.0335    0.0000    0.0000    0.0075    0.0099    0.0000   -0.0000   -0.0006   -0.0306
        9 V      9s         0.0005    0.0139   -0.0000   -0.0000   -0.0030   -0.0129    0.0000   -0.0000    0.0022   -0.0203
       10 V     10s        -0.0009   -0.0158   -0.0000   -0.0000    0.0035    0.0088    0.0000   -0.0000   -0.0009   -0.0080
       11 V      2px       -0.0000    0.0000    0.0001    0.9888    0.0000    0.0000   -0.0004    0.0742   -0.0000   -0.0000
       12 V      3px        0.0000    0.0000    0.0000    0.1065    0.0000    0.0000    0.0053   -0.9338    0.0000    0.0000
       13 V      4px       -0.0000   -0.0000   -0.0000   -0.0255   -0.0000    0.0000    0.0013   -0.2239    0.0000    0.0000
       14 V      5px        0.0000    0.0000    0.0000    0.0696    0.0000   -0.0000   -0.0015    0.2665   -0.0000    0.0000
       15 V      6px       -0.0000   -0.0000   -0.0000   -0.0401   -0.0000    0.0000    0.0001   -0.0226    0.0000    0.0000
       16 V      7px        0.0000    0.0000    0.0000    0.0417    0.0000   -0.0000    0.0000   -0.0030    0.0000    0.0000
       17 V      8px       -0.0000   -0.0000   -0.0000   -0.0223   -0.0000    0.0000    0.0001   -0.0199    0.0000   -0.0000
       18 V      9px        0.0000    0.0000    0.0000    0.0152    0.0000   -0.0000   -0.0001    0.0167   -0.0000   -0.0000
       19 V     10px       -0.0000   -0.0000   -0.0000   -0.0060    0.0000    0.0000   -0.0000    0.0014   -0.0000   -0.0000
       20 V      2py       -0.0000   -0.0000    0.9888   -0.0001   -0.0000   -0.0000   -0.0742   -0.0004   -0.0000    0.0000
       21 V      3py        0.0000   -0.0000    0.1065   -0.0000   -0.0000    0.0000    0.9338    0.0053    0.0000   -0.0000
       22 V      4py       -0.0000    0.0000   -0.0255    0.0000    0.0000    0.0000    0.2239    0.0013    0.0000   -0.0000
       23 V      5py        0.0000   -0.0000    0.0696   -0.0000   -0.0000   -0.0000   -0.2665   -0.0015   -0.0000   -0.0000
       24 V      6py       -0.0000    0.0000   -0.0401    0.0000    0.0000    0.0000    0.0226    0.0001    0.0000   -0.0000
       25 V      7py        0.0000   -0.0000    0.0417   -0.0000   -0.0000   -0.0000    0.0030    0.0000    0.0000   -0.0000
       26 V      8py       -0.0000    0.0000   -0.0223    0.0000    0.0000    0.0000    0.0199    0.0001    0.0000   -0.0000
       27 V      9py        0.0000   -0.0000    0.0152   -0.0000   -0.0000   -0.0000   -0.0167   -0.0001   -0.0000    0.0000
       28 V     10py       -0.0000    0.0000   -0.0060    0.0000    0.0000   -0.0000   -0.0014   -0.0000   -0.0000    0.0000
       29 V      2pz        0.0014    0.1058   -0.0000   -0.0000    0.9798    0.0050    0.0000   -0.0000   -0.0847   -0.0015
       30 V      3pz       -0.0004    0.0042   -0.0000   -0.0000    0.1255    0.0665   -0.0000    0.0000    0.9180    0.0045
       31 V      4pz        0.0001   -0.0011    0.0000    0.0000   -0.0297    0.0003   -0.0000    0.0000    0.2484    0.0586
       32 V      5pz       -0.0004    0.0033   -0.0000   -0.0000    0.0802   -0.0014    0.0000   -0.0000   -0.2860    0.0110
       33 V      6pz        0.0003   -0.0022    0.0000    0.0000   -0.0456    0.0008   -0.0000    0.0000    0.0202    0.0112
       34 V      7pz       -0.0005    0.0028   -0.0000   -0.0000    0.0465   -0.0007    0.0000   -0.0000    0.0043    0.0023
       35 V      8pz        0.0004   -0.0018    0.0000    0.0000   -0.0245    0.0004   -0.0000    0.0000    0.0219    0.0002
       36 V      9pz       -0.0005    0.0016   -0.0000   -0.0000    0.0163   -0.0001    0.0000   -0.0000   -0.0181   -0.0005
       37 V     10pz        0.0006   -0.0020    0.0000    0.0000   -0.0049    0.0009   -0.0000    0.0000   -0.0023   -0.0004
       38 V      3d2-      -0.0000   -0.0000    0.0061   -0.0000    0.0000    0.0000   -0.0054   -0.0000   -0.0000   -0.0000
       39 V      4d2-       0.0000    0.0000   -0.0056    0.0000   -0.0000   -0.0000    0.0029    0.0000    0.0000    0.0000
       40 V      5d2-      -0.0000   -0.0000    0.0057   -0.0000    0.0000    0.0000   -0.0021   -0.0000    0.0000    0.0000
       41 V      6d2-      -0.0000    0.0000   -0.0087    0.0000   -0.0000    0.0000    0.0026    0.0000   -0.0000    0.0000
       42 V      7d2-       0.0000   -0.0000    0.0086   -0.0000    0.0000    0.0000   -0.0024   -0.0000   -0.0000    0.0000
       43 V      8d2-      -0.0000    0.0000   -0.0066    0.0000    0.0000   -0.0000    0.0020    0.0000   -0.0000    0.0000
       44 V      9d2-       0.0000    0.0000    0.0044   -0.0000   -0.0000   -0.0000   -0.0009   -0.0000    0.0000    0.0000
       45 V     10d2-      -0.0000   -0.0000   -0.0057    0.0000    0.0000   -0.0000    0.0017    0.0000    0.0000   -0.0000
       46 V      3d1-      -0.0000    0.0000    0.0110   -0.0000   -0.0000   -0.0000    0.0041    0.0000    0.0000    0.0000
       47 V      4d1-       0.0000   -0.0000   -0.0100    0.0000    0.0000    0.0000    0.0018    0.0000   -0.0000   -0.0000
       48 V      5d1-      -0.0000    0.0000    0.0100   -0.0000   -0.0000   -0.0000   -0.0037   -0.0000   -0.0000   -0.0000
       49 V      6d1-       0.0000   -0.0000   -0.0148    0.0000    0.0000    0.0000    0.0051    0.0000    0.0000   -0.0000
       50 V      7d1-      -0.0000   -0.0000    0.0143   -0.0000   -0.0000   -0.0000   -0.0042   -0.0000   -0.0000    0.0000
       51 V      8d1-       0.0000    0.0000   -0.0106    0.0000    0.0000    0.0000    0.0035    0.0000   -0.0000   -0.0000
       52 V      9d1-      -0.0000   -0.0000    0.0069   -0.0000   -0.0000   -0.0000   -0.0015   -0.0000   -0.0000    0.0000
       53 V     10d1-       0.0000    0.0000   -0.0086    0.0000    0.0000    0.0000    0.0026    0.0000   -0.0000   -0.0000
       54 V      3d0       -0.0001   -0.0041   -0.0000   -0.0000   -0.0036    0.0003   -0.0000    0.0000    0.0197    0.0007
       55 V      4d0        0.0001    0.0038    0.0000    0.0000    0.0035   -0.0008    0.0000   -0.0000   -0.0054   -0.0002
       56 V      5d0       -0.0001   -0.0039   -0.0000   -0.0000   -0.0036    0.0015    0.0000   -0.0000    0.0011   -0.0011
       57 V      6d0        0.0002    0.0062    0.0000    0.0000    0.0062   -0.0027   -0.0000    0.0000   -0.0010    0.0004
       58 V      7d0       -0.0002   -0.0063   -0.0000   -0.0000   -0.0066    0.0024    0.0000   -0.0000    0.0016   -0.0005
       59 V      8d0        0.0003    0.0049    0.0000    0.0000    0.0054   -0.0017   -0.0000    0.0000   -0.0014    0.0004
       60 V      9d0       -0.0003   -0.0033   -0.0000   -0.0000   -0.0039    0.0011    0.0000   -0.0000    0.0007   -0.0002
       61 V     10d0        0.0005    0.0038    0.0000    0.0000    0.0054   -0.0013   -0.0000    0.0000   -0.0016    0.0002
       62 V      3d1+       0.0000   -0.0000    0.0000    0.0110    0.0000   -0.0000    0.0000   -0.0041    0.0000    0.0000
       63 V      4d1+      -0.0000    0.0000   -0.0000   -0.0100   -0.0000   -0.0000    0.0000   -0.0018   -0.0000    0.0000
       64 V      5d1+       0.0000   -0.0000    0.0000    0.0100    0.0000    0.0000   -0.0000    0.0037   -0.0000    0.0000
       65 V      6d1+      -0.0000    0.0000   -0.0000   -0.0148   -0.0000   -0.0000    0.0000   -0.0051    0.0000    0.0000
       66 V      7d1+       0.0000   -0.0000    0.0000    0.0143    0.0000    0.0000   -0.0000    0.0042   -0.0000   -0.0000
       67 V      8d1+      -0.0000    0.0000   -0.0000   -0.0106   -0.0000   -0.0000    0.0000   -0.0035    0.0000   -0.0000
       68 V      9d1+       0.0000   -0.0000    0.0000    0.0069    0.0000    0.0000   -0.0000    0.0015   -0.0000   -0.0000
       69 V     10d1+      -0.0000   -0.0000   -0.0000   -0.0086   -0.0000    0.0000    0.0000   -0.0026    0.0000   -0.0000
       70 V      3d2+      -0.0000   -0.0000   -0.0000   -0.0061    0.0000    0.0000    0.0000   -0.0054   -0.0000   -0.0000
       71 V      4d2+       0.0000    0.0000    0.0000    0.0056   -0.0000   -0.0000   -0.0000    0.0029    0.0000   -0.0000
       72 V      5d2+      -0.0000   -0.0000   -0.0000   -0.0057    0.0000    0.0000    0.0000   -0.0021   -0.0000   -0.0000
       73 V      6d2+       0.0000    0.0000    0.0000    0.0087   -0.0000   -0.0000   -0.0000    0.0026    0.0000    0.0000
       74 V      7d2+      -0.0000   -0.0000   -0.0000   -0.0086    0.0000    0.0000    0.0000   -0.0024   -0.0000   -0.0000
       75 V      8d2+       0.0000    0.0000    0.0000    0.0066   -0.0000   -0.0000   -0.0000    0.0020    0.0000    0.0000
       76 V      9d2+      -0.0000   -0.0000   -0.0000   -0.0044    0.0000    0.0000    0.0000   -0.0009    0.0000    0.0000
       77 V     10d2+       0.0000    0.0000    0.0000    0.0057   -0.0000   -0.0000   -0.0000    0.0017    0.0000    0.0000
       78 V      4f3-      -0.0000   -0.0000   -0.0000   -0.0000   -0.0000    0.0000   -0.0000    0.0000   -0.0000   -0.0000
       79 V      5f3-       0.0000    0.0000    0.0000    0.0000    0.0000    0.0000   -0.0000    0.0000    0.0000   -0.0000
       80 V      6f3-      -0.0000   -0.0000   -0.0000   -0.0000    0.0000   -0.0000    0.0000    0.0000    0.0000   -0.0000
       81 V      7f3-       0.0000    0.0000    0.0000    0.0000   -0.0000   -0.0000   -0.0000   -0.0000    0.0000   -0.0000
       82 V      8f3-      -0.0000   -0.0000   -0.0000   -0.0000    0.0000    0.0000    0.0000    0.0000   -0.0000    0.0000
       83 V      9f3-       0.0000    0.0000    0.0000    0.0000    0.0000    0.0000   -0.0000   -0.0000   -0.0000    0.0000
       84 V      4f2-       0.0000   -0.0000   -0.0006    0.0000   -0.0000   -0.0000   -0.0000   -0.0000   -0.0000    0.0000
       85 V      5f2-      -0.0000    0.0000    0.0007   -0.0000    0.0000   -0.0000   -0.0001   -0.0000   -0.0000    0.0000
       86 V      6f2-       0.0000   -0.0000   -0.0009    0.0000   -0.0000   -0.0000    0.0001    0.0000   -0.0000    0.0000
       87 V      7f2-      -0.0000    0.0000    0.0013   -0.0000    0.0000    0.0000   -0.0002   -0.0000    0.0000    0.0000
       88 V      8f2-       0.0000   -0.0000   -0.0019    0.0000   -0.0000    0.0000    0.0004    0.0000    0.0000    0.0000
       89 V      9f2-      -0.0000    0.0000    0.0010   -0.0000    0.0000   -0.0000   -0.0003   -0.0000    0.0000    0.0000
       90 V      4f1-      -0.0000    0.0000   -0.0006    0.0000   -0.0000   -0.0000   -0.0011   -0.0000    0.0000    0.0000
       91 V      5f1-       0.0000   -0.0000    0.0007   -0.0000    0.0000   -0.0000    0.0003    0.0000    0.0000    0.0000
       92 V      6f1-      -0.0000    0.0000   -0.0008    0.0000   -0.0000    0.0000    0.0000    0.0000   -0.0000    0.0000
       93 V      7f1-       0.0000   -0.0000    0.0011   -0.0000    0.0000    0.0000   -0.0001   -0.0000   -0.0000    0.0000
       94 V      8f1-      -0.0000    0.0000   -0.0016    0.0000   -0.0000    0.0000    0.0002    0.0000    0.0000    0.0000
       95 V      9f1-       0.0000   -0.0000    0.0008   -0.0000    0.0000   -0.0000   -0.0002   -0.0000   -0.0000    0.0000
       96 V      4f0       -0.0000   -0.0017    0.0000    0.0000   -0.0007   -0.0004    0.0000   -0.0000   -0.0012    0.0000
       97 V      5f0        0.0000    0.0019   -0.0000   -0.0000    0.0008    0.0001   -0.0000    0.0000    0.0003   -0.0002
       98 V      6f0       -0.0000   -0.0025    0.0000    0.0000   -0.0009    0.0003   -0.0000    0.0000    0.0000   -0.0002
       99 V      7f0        0.0001    0.0037   -0.0000   -0.0000    0.0013   -0.0007    0.0000   -0.0000   -0.0001    0.0001
      100 V      8f0       -0.0001   -0.0053    0.0000    0.0000   -0.0018    0.0014   -0.0000    0.0000    0.0003   -0.0003
      101 V      9f0        0.0001    0.0027   -0.0000   -0.0000    0.0009   -0.0009    0.0000   -0.0000   -0.0002    0.0002
      102 V      4f1+      -0.0000   -0.0000   -0.0000   -0.0006   -0.0000   -0.0000   -0.0000    0.0011   -0.0000    0.0000
      103 V      5f1+       0.0000    0.0000    0.0000    0.0007    0.0000    0.0000    0.0000   -0.0003    0.0000   -0.0000
      104 V      6f1+      -0.0000   -0.0000   -0.0000   -0.0008   -0.0000    0.0000    0.0000   -0.0000   -0.0000   -0.0000
      105 V      7f1+       0.0000    0.0000    0.0000    0.0011    0.0000   -0.0000   -0.0000    0.0001   -0.0000   -0.0000
      106 V      8f1+      -0.0000   -0.0000   -0.0000   -0.0016   -0.0000    0.0000    0.0000   -0.0002    0.0000   -0.0000
      107 V      9f1+       0.0000    0.0000    0.0000    0.0008    0.0000   -0.0000   -0.0000    0.0002   -0.0000    0.0000
      108 V      4f2+       0.0000    0.0000    0.0000    0.0006   -0.0000   -0.0000    0.0000   -0.0000    0.0000    0.0000
      109 V      5f2+      -0.0000   -0.0000   -0.0000   -0.0007    0.0000    0.0000    0.0000   -0.0001   -0.0000   -0.0000
      110 V      6f2+       0.0000    0.0000    0.0000    0.0009   -0.0000   -0.0000   -0.0000    0.0001    0.0000    0.0000
      111 V      7f2+      -0.0000   -0.0000   -0.0000   -0.0013    0.0000    0.0000    0.0000   -0.0002   -0.0000   -0.0000
      112 V      8f2+       0.0000    0.0000    0.0000    0.0019   -0.0000   -0.0000   -0.0000    0.0004    0.0000    0.0000
      113 V      9f2+      -0.0000   -0.0000   -0.0000   -0.0010    0.0000    0.0000    0.0000   -0.0003   -0.0000   -0.0000
      114 V      4f3+      -0.0000   -0.0010    0.0000    0.0000    0.0007   -0.0002    0.0000   -0.0000   -0.0001    0.0000
      115 V      5f3+       0.0000    0.0012   -0.0000   -0.0000   -0.0008   -0.0000    0.0000    0.0000    0.0001   -0.0001
      116 V      6f3+      -0.0000   -0.0015    0.0000    0.0000    0.0010    0.0002    0.0000   -0.0000   -0.0002   -0.0001
      117 V      7f3+       0.0001    0.0023   -0.0000   -0.0000   -0.0015   -0.0005    0.0000   -0.0000    0.0003    0.0001
      118 V      8f3+      -0.0001   -0.0032    0.0000    0.0000    0.0021    0.0010   -0.0000    0.0000   -0.0005   -0.0002
      119 V      9f3+       0.0000    0.0016   -0.0000   -0.0000   -0.0011   -0.0006   -0.0000   -0.0000    0.0003    0.0001
      120 V      5g4-      -0.0000   -0.0000   -0.0003    0.0000    0.0000    0.0000   -0.0003   -0.0000   -0.0000   -0.0000
      121 V      6g4-      -0.0000    0.0000    0.0004   -0.0000   -0.0000   -0.0000    0.0001    0.0000    0.0000    0.0000
      122 V      7g4-       0.0000    0.0000   -0.0005    0.0000    0.0000    0.0000   -0.0000   -0.0000   -0.0000   -0.0000
      123 V      8g4-      -0.0000   -0.0000    0.0003   -0.0000   -0.0000   -0.0000    0.0000    0.0000    0.0000    0.0000
      124 V      5g3-      -0.0000   -0.0000    0.0000   -0.0000   -0.0000   -0.0000    0.0000    0.0000   -0.0000   -0.0000
      125 V      6g3-       0.0000    0.0000   -0.0000    0.0000    0.0000   -0.0000    0.0000    0.0000   -0.0000   -0.0000
      126 V      7g3-      -0.0000   -0.0000    0.0000   -0.0000   -0.0000   -0.0000   -0.0000   -0.0000   -0.0000   -0.0000
      127 V      8g3-       0.0000    0.0000   -0.0000    0.0000    0.0000   -0.0000    0.0000    0.0000   -0.0000    0.0000
      128 V      5g2-       0.0000    0.0000   -0.0000    0.0000   -0.0000   -0.0000   -0.0001   -0.0000   -0.0000    0.0000
      129 V      6g2-      -0.0000   -0.0000    0.0000   -0.0000    0.0000   -0.0000    0.0000    0.0000    0.0000   -0.0000
      130 V      7g2-       0.0000    0.0000   -0.0000    0.0000    0.0000   -0.0000   -0.0000   -0.0000   -0.0000   -0.0000
      131 V      8g2-      -0.0000   -0.0000    0.0000   -0.0000   -0.0000    0.0000    0.0000    0.0000   -0.0000   -0.0000
      132 V      5g1-       0.0000   -0.0000   -0.0004    0.0000    0.0000    0.0000   -0.0004   -0.0000   -0.0000   -0.0000
      133 V      6g1-      -0.0000    0.0000    0.0005   -0.0000   -0.0000   -0.0000    0.0001    0.0000   -0.0000    0.0000
      134 V      7g1-       0.0000   -0.0000   -0.0006    0.0000    0.0000    0.0000   -0.0000   -0.0000   -0.0000   -0.0000
      135 V      8g1-      -0.0000    0.0000    0.0004   -0.0000   -0.0000   -0.0000    0.0000    0.0000   -0.0000    0.0000
      136 V      5g0       -0.0000   -0.0001    0.0000    0.0000   -0.0007   -0.0001    0.0000   -0.0000   -0.0005    0.0000
      137 V      6g0        0.0000    0.0001   -0.0000   -0.0000    0.0008    0.0000   -0.0000    0.0000    0.0001   -0.0000
      138 V      7g0       -0.0000   -0.0001    0.0000    0.0000   -0.0009   -0.0000    0.0000   -0.0000   -0.0000    0.0000
      139 V      8g0        0.0000    0.0001   -0.0000   -0.0000    0.0006    0.0000    0.0000   -0.0000   -0.0000   -0.0000
      140 V      5g1+       0.0000    0.0000   -0.0000   -0.0004   -0.0000    0.0000   -0.0000    0.0004   -0.0000   -0.0000
      141 V      6g1+      -0.0000   -0.0000    0.0000    0.0005    0.0000    0.0000    0.0000   -0.0001    0.0000   -0.0000
      142 V      7g1+       0.0000    0.0000   -0.0000   -0.0006   -0.0000   -0.0000   -0.0000    0.0000   -0.0000    0.0000
      143 V      8g1+      -0.0000   -0.0000    0.0000    0.0004    0.0000    0.0000    0.0000   -0.0000   -0.0000   -0.0000
      144 V      5g2+      -0.0000   -0.0000    0.0000    0.0000    0.0000   -0.0000    0.0000   -0.0001    0.0000    0.0000
      145 V      6g2+       0.0000    0.0000   -0.0000   -0.0000   -0.0000   -0.0000   -0.0000    0.0000    0.0000    0.0000
      146 V      7g2+      -0.0000   -0.0000    0.0000    0.0000    0.0000    0.0000    0.0000   -0.0000   -0.0000   -0.0000
      147 V      8g2+       0.0000    0.0000   -0.0000   -0.0000   -0.0000   -0.0000   -0.0000    0.0000    0.0000    0.0000
      148 V      5g3+       0.0000    0.0002    0.0000   -0.0000   -0.0004    0.0000    0.0000   -0.0000   -0.0002   -0.0000
      149 V      6g3+      -0.0000   -0.0003   -0.0000    0.0000    0.0005    0.0000    0.0000   -0.0000    0.0000   -0.0000
      150 V      7g3+       0.0000    0.0004    0.0000   -0.0000   -0.0005   -0.0000   -0.0000    0.0000    0.0000    0.0000
      151 V      8g3+      -0.0000   -0.0002   -0.0000    0.0000    0.0003    0.0000   -0.0000    0.0000   -0.0000   -0.0000
      152 V      5g4+       0.0000    0.0000   -0.0000   -0.0003   -0.0000    0.0000   -0.0000    0.0003   -0.0000   -0.0000
      153 V      6g4+      -0.0000   -0.0000    0.0000    0.0004    0.0000    0.0000    0.0000   -0.0001   -0.0000   -0.0000
      154 V      7g4+       0.0000    0.0000   -0.0000   -0.0005   -0.0000   -0.0000   -0.0000    0.0000    0.0000    0.0000
      155 V      8g4+      -0.0000   -0.0000    0.0000    0.0003    0.0000    0.0000    0.0000   -0.0000   -0.0000   -0.0000
      156 V      6h5-       0.0000   -0.0000    0.0000   -0.0000    0.0000   -0.0000    0.0000    0.0000    0.0000    0.0000
      157 V      7h5-      -0.0000    0.0000   -0.0000    0.0000   -0.0000    0.0000   -0.0000   -0.0000   -0.0000    0.0000
      158 V      6h4-      -0.0000    0.0000    0.0000   -0.0000   -0.0000   -0.0000    0.0000    0.0000   -0.0000    0.0000
      159 V      7h4-       0.0000   -0.0000   -0.0000    0.0000    0.0000    0.0000   -0.0000   -0.0000    0.0000   -0.0000
      160 V      6h3-      -0.0000   -0.0000   -0.0000    0.0000   -0.0000   -0.0000    0.0000   -0.0000   -0.0000   -0.0000
      161 V      7h3-       0.0000   -0.0000    0.0000   -0.0000   -0.0000   -0.0000    0.0000    0.0000   -0.0000   -0.0000
      162 V      6h2-       0.0000   -0.0000    0.0000   -0.0000   -0.0000   -0.0000    0.0000    0.0000    0.0000    0.0000
      163 V      7h2-      -0.0000    0.0000   -0.0000    0.0000   -0.0000    0.0000   -0.0000   -0.0000   -0.0000    0.0000
      164 V      6h1-      -0.0000    0.0000    0.0000   -0.0000   -0.0000    0.0000   -0.0000   -0.0000   -0.0000   -0.0000
      165 V      7h1-       0.0000   -0.0000   -0.0000    0.0000    0.0000   -0.0000    0.0000    0.0000   -0.0000   -0.0000
      166 V      6h0       -0.0000   -0.0000   -0.0000   -0.0000   -0.0000   -0.0000   -0.0000    0.0000   -0.0000    0.0000
      167 V      7h0        0.0000    0.0000    0.0000    0.0000    0.0000    0.0000    0.0000   -0.0000    0.0000   -0.0000
      168 V      6h1+      -0.0000   -0.0000    0.0000    0.0000    0.0000   -0.0000   -0.0000    0.0000    0.0000    0.0000
      169 V      7h1+       0.0000    0.0000   -0.0000   -0.0000   -0.0000    0.0000    0.0000   -0.0000   -0.0000   -0.0000
      170 V      6h2+       0.0000    0.0000   -0.0000   -0.0000   -0.0000    0.0000   -0.0000    0.0000   -0.0000   -0.0000
      171 V      7h2+      -0.0000   -0.0000    0.0000    0.0000    0.0000   -0.0000    0.0000   -0.0000    0.0000    0.0000
      172 V      6h3+      -0.0000   -0.0000   -0.0000   -0.0000    0.0000   -0.0000   -0.0000    0.0000    0.0000    0.0000
      173 V      7h3+       0.0000    0.0000    0.0000    0.0000   -0.0000    0.0000    0.0000   -0.0000   -0.0000   -0.0000
      174 V      6h4+      -0.0000   -0.0000    0.0000    0.0000    0.0000   -0.0000    0.0000   -0.0000    0.0000    0.0000
      175 V      7h4+       0.0000    0.0000   -0.0000   -0.0000   -0.0000    0.0000   -0.0000    0.0000   -0.0000   -0.0000
      176 V      6h5+      -0.0000   -0.0000   -0.0000   -0.0000   -0.0000   -0.0000   -0.0000    0.0000    0.0000   -0.0000
      177 V      7h5+       0.0000    0.0000    0.0000    0.0000    0.0000    0.0000    0.0000   -0.0000   -0.0000   -0.0000

          Orbital           11        12        13        14        15        16        17        18        19        20    
          Energy           -0.0968   -0.0968   -0.0953   -0.0603   -0.0320   -0.0320   -0.0317   -0.0317   -0.0316   -0.0096
          Occ. No.          0.0000    0.0000    0.0000    0.0000    0.0000    0.0000    0.0000    0.0000    0.0000    0.0000

        1 V      1s         0.0000   -0.0000   -0.0000   -0.0000    0.0000   -0.0000    0.0000   -0.0000    0.0000   -0.0000
        2 V      2s        -0.0000    0.0000   -0.0011   -0.0070    0.0000   -0.0000    0.0000   -0.0000    0.0002    0.0000
        3 V      3s         0.0000   -0.0000    0.0046    0.0434   -0.0000    0.0000    0.0000   -0.0000    0.0000   -0.0000
        4 V      4s        -0.0000    0.0000   -0.0382   -0.1789    0.0000   -0.0000   -0.0000    0.0000    0.0011    0.0000
        5 V      5s        -0.0000    0.0000   -0.0489    0.7122    0.0000   -0.0000    0.0000   -0.0000    0.0003    0.0000
        6 V      6s        -0.0000    0.0000   -0.0048    0.4403    0.0000   -0.0000    0.0000   -0.0000    0.0010   -0.0000
        7 V      7s        -0.0000    0.0000   -0.0047    0.4361    0.0000   -0.0000    0.0000   -0.0000    0.0017   -0.0000
        8 V      8s        -0.0000    0.0000   -0.0009    0.1954    0.0000   -0.0000    0.0000   -0.0000    0.0009   -0.0000
        9 V      9s        -0.0000    0.0000   -0.0004    0.1759    0.0000   -0.0000    0.0000   -0.0000    0.0010   -0.0000
       10 V     10s        -0.0000    0.0000    0.0002    0.0528    0.0000   -0.0000    0.0000   -0.0000    0.0003   -0.0000
       11 V      2px        0.0002   -0.0094    0.0000    0.0000    0.0003    0.0000   -0.0000    0.0004   -0.0000   -0.0002
       12 V      3px       -0.0012    0.0657   -0.0000   -0.0000   -0.0004   -0.0000   -0.0001    0.0027    0.0000    0.0012
       13 V      4px        0.0129   -0.7216    0.0000   -0.0000   -0.0018   -0.0000    0.0001   -0.0022    0.0000   -0.0071
       14 V      5px        0.0076   -0.4241    0.0000    0.0000    0.0005    0.0000   -0.0002    0.0047   -0.0000   -0.0008
       15 V      6px        0.0086   -0.4821    0.0000    0.0000    0.0011    0.0000   -0.0007    0.0183   -0.0000    0.0057
       16 V      7px        0.0035   -0.1985    0.0000    0.0000    0.0009    0.0000   -0.0006    0.0161   -0.0000    0.0068
       17 V      8px        0.0025   -0.1422    0.0000    0.0000    0.0010    0.0000   -0.0006    0.0181   -0.0000    0.0085
       18 V      9px        0.0009   -0.0490    0.0000    0.0000    0.0005    0.0000   -0.0003    0.0079   -0.0000    0.0039
       19 V     10px        0.0001   -0.0057    0.0000    0.0000    0.0001    0.0000   -0.0001    0.0015   -0.0000    0.0007
       20 V      2py        0.0094    0.0002   -0.0000   -0.0000    0.0000   -0.0003   -0.0004   -0.0000   -0.0000   -0.0121
       21 V      3py       -0.0657   -0.0012    0.0000    0.0000   -0.0000    0.0004   -0.0027   -0.0001   -0.0000    0.0808
       22 V      4py        0.7216    0.0129   -0.0000    0.0000   -0.0000    0.0018    0.0022    0.0001    0.0000   -0.4778
       23 V      5py        0.4241    0.0076   -0.0000   -0.0000    0.0000   -0.0005   -0.0047   -0.0002   -0.0000   -0.0512
       24 V      6py        0.4821    0.0086   -0.0000   -0.0000    0.0000   -0.0011   -0.0183   -0.0007   -0.0000    0.3837
       25 V      7py        0.1985    0.0035   -0.0000   -0.0000    0.0000   -0.0009   -0.0161   -0.0006   -0.0000    0.4630
       26 V      8py        0.1422    0.0025   -0.0000   -0.0000    0.0000   -0.0010   -0.0181   -0.0006   -0.0000    0.5728
       27 V      9py        0.0490    0.0009   -0.0000   -0.0000    0.0000   -0.0005   -0.0079   -0.0003   -0.0000    0.2628
       28 V     10py        0.0057    0.0001   -0.0000   -0.0000    0.0000   -0.0001   -0.0015   -0.0001   -0.0000    0.0506
       29 V      2pz       -0.0000    0.0000    0.0110    0.0010    0.0000   -0.0000   -0.0000    0.0000    0.0005    0.0000
       30 V      3pz        0.0000   -0.0000   -0.0697   -0.0033   -0.0000    0.0000   -0.0000    0.0000   -0.0034   -0.0000
       31 V      4pz       -0.0000    0.0000    0.7045   -0.0039   -0.0000    0.0000   -0.0000    0.0000   -0.0035    0.0000
       32 V      5pz       -0.0000    0.0000    0.4304    0.0192   -0.0000    0.0000    0.0000    0.0000   -0.0025    0.0000
       33 V      6pz       -0.0000    0.0000    0.4919    0.0357   -0.0000    0.0000    0.0000    0.0000   -0.0123   -0.0000
       34 V      7pz       -0.0000    0.0000    0.2056    0.0237   -0.0000    0.0000    0.0000    0.0000   -0.0109   -0.0000
       35 V      8pz       -0.0000    0.0000    0.1492    0.0236   -0.0000    0.0000   -0.0000    0.0000   -0.0122   -0.0000
       36 V      9pz       -0.0000    0.0000    0.0522    0.0098   -0.0000    0.0000   -0.0000    0.0000   -0.0053   -0.0000
       37 V     10pz       -0.0000    0.0000    0.0063    0.0018   -0.0000    0.0000   -0.0000    0.0000   -0.0009   -0.0000
       38 V      3d2-       0.0021    0.0000   -0.0000    0.0000   -0.0011    0.3454    0.0371    0.0013    0.0000   -0.0011
       39 V      4d2-       0.0006    0.0000   -0.0000    0.0000   -0.0020    0.6264    0.0688    0.0025    0.0000    0.0036
       40 V      5d2-       0.0006    0.0000   -0.0000    0.0000   -0.0017    0.5421    0.0596    0.0021    0.0000    0.0035
       41 V      6d2-      -0.0002   -0.0000   -0.0000    0.0000   -0.0010    0.3167    0.0350    0.0013    0.0000    0.0029
       42 V      7d2-       0.0004    0.0000   -0.0000    0.0000   -0.0008    0.2500    0.0275    0.0010    0.0000    0.0017
       43 V      8d2-      -0.0003   -0.0000   -0.0000    0.0000   -0.0004    0.1276    0.0141    0.0005    0.0000    0.0015
       44 V      9d2-       0.0001    0.0000   -0.0000    0.0000   -0.0002    0.0566    0.0062    0.0002    0.0000    0.0004
       45 V     10d2-      -0.0002   -0.0000   -0.0000    0.0000   -0.0000    0.0101    0.0011    0.0000    0.0000    0.0004
       46 V      3d1-       0.0045    0.0001   -0.0000   -0.0000    0.0001   -0.0385    0.3424    0.0123    0.0000    0.0088
       47 V      4d1-       0.0102    0.0002   -0.0000   -0.0000    0.0002   -0.0687    0.6258    0.0224    0.0000    0.0155
       48 V      5d1-       0.0091    0.0002   -0.0000   -0.0000    0.0002   -0.0595    0.5421    0.0194    0.0000    0.0147
       49 V      6d1-       0.0036    0.0001   -0.0000   -0.0000    0.0001   -0.0346    0.3171    0.0114    0.0000    0.0116
       50 V      7d1-       0.0037    0.0001   -0.0000   -0.0000    0.0001   -0.0274    0.2504    0.0090    0.0000    0.0084
       51 V      8d1-       0.0009    0.0000   -0.0000   -0.0000    0.0000   -0.0140    0.1280    0.0046    0.0000    0.0060
       52 V      9d1-       0.0007    0.0000   -0.0000   -0.0000    0.0000   -0.0062    0.0567    0.0020    0.0000    0.0023
       53 V     10d1-      -0.0003   -0.0000   -0.0000    0.0000    0.0000   -0.0011    0.0101    0.0004    0.0000    0.0009
       54 V      3d0        0.0000   -0.0000   -0.0006   -0.0007    0.0000   -0.0000   -0.0000    0.0000    0.3439   -0.0000
       55 V      4d0       -0.0000    0.0000    0.0102   -0.0004    0.0000   -0.0000   -0.0000    0.0000    0.6301   -0.0000
       56 V      5d0       -0.0000    0.0000    0.0089    0.0003    0.0000   -0.0000   -0.0000    0.0000    0.5461   -0.0000
       57 V      6d0       -0.0000    0.0000    0.0048   -0.0005    0.0000   -0.0000   -0.0000    0.0000    0.3196   -0.0000
       58 V      7d0       -0.0000    0.0000    0.0034    0.0001    0.0000   -0.0000   -0.0000    0.0000    0.2524   -0.0000
       59 V      8d0       -0.0000    0.0000    0.0018   -0.0003    0.0000   -0.0000   -0.0000    0.0000    0.1291   -0.0000
       60 V      9d0       -0.0000    0.0000    0.0006    0.0001    0.0000   -0.0000   -0.0000    0.0000    0.0572   -0.0000
       61 V     10d0       -0.0000    0.0000    0.0003   -0.0001    0.0000   -0.0000   -0.0000    0.0000    0.0102   -0.0000
       62 V      3d1+       0.0001   -0.0045   -0.0000   -0.0000    0.0385    0.0001    0.0123   -0.3424    0.0000    0.0001
       63 V      4d1+       0.0002   -0.0102    0.0000   -0.0000    0.0687    0.0002    0.0224   -0.6258    0.0000    0.0002
       64 V      5d1+       0.0002   -0.0091    0.0000    0.0000    0.0595    0.0002    0.0194   -0.5421    0.0000    0.0002
       65 V      6d1+       0.0001   -0.0036    0.0000    0.0000    0.0346    0.0001    0.0114   -0.3171    0.0000    0.0002
       66 V      7d1+       0.0001   -0.0037    0.0000    0.0000    0.0274    0.0001    0.0090   -0.2504    0.0000    0.0001
       67 V      8d1+       0.0000   -0.0009    0.0000    0.0000    0.0140    0.0000    0.0046   -0.1280    0.0000    0.0001
       68 V      9d1+       0.0000   -0.0007    0.0000    0.0000    0.0062    0.0000    0.0020   -0.0567    0.0000    0.0000
       69 V     10d1+      -0.0000    0.0003    0.0000    0.0000    0.0011    0.0000    0.0004   -0.0101    0.0000    0.0000
       70 V      3d2+      -0.0000    0.0021    0.0000    0.0000    0.3454    0.0011   -0.0013    0.0371   -0.0000    0.0000
       71 V      4d2+      -0.0000    0.0006    0.0000   -0.0000    0.6264    0.0020   -0.0025    0.0688   -0.0000   -0.0001
       72 V      5d2+      -0.0000    0.0006    0.0000    0.0000    0.5421    0.0017   -0.0021    0.0596   -0.0000   -0.0001
       73 V      6d2+       0.0000   -0.0002   -0.0000   -0.0000    0.3167    0.0010   -0.0013    0.0350   -0.0000   -0.0000
       74 V      7d2+      -0.0000    0.0004    0.0000   -0.0000    0.2500    0.0008   -0.0010    0.0275   -0.0000   -0.0000
       75 V      8d2+       0.0000   -0.0003   -0.0000   -0.0000    0.1276    0.0004   -0.0005    0.0141   -0.0000   -0.0000
       76 V      9d2+      -0.0000    0.0001   -0.0000   -0.0000    0.0566    0.0002   -0.0002    0.0062   -0.0000   -0.0000
       77 V     10d2+       0.0000   -0.0002   -0.0000   -0.0000    0.0101    0.0000   -0.0000    0.0011   -0.0000   -0.0000
       78 V      4f3-      -0.0000   -0.0000    0.0000    0.0000   -0.0000    0.0000    0.0000    0.0000    0.0000    0.0000
       79 V      5f3-      -0.0000   -0.0000    0.0000    0.0000   -0.0000    0.0000    0.0000    0.0000    0.0000    0.0000
       80 V      6f3-      -0.0000   -0.0000    0.0000    0.0000   -0.0000    0.0000    0.0000    0.0000    0.0000    0.0000
       81 V      7f3-      -0.0000   -0.0000    0.0000    0.0000   -0.0000    0.0000    0.0000    0.0000    0.0000    0.0000
       82 V      8f3-      -0.0000   -0.0000   -0.0000    0.0000   -0.0000    0.0000    0.0000    0.0000    0.0000    0.0000
       83 V      9f3-      -0.0000   -0.0000   -0.0000    0.0000   -0.0000    0.0000    0.0000    0.0000   -0.0000    0.0000
       84 V      4f2-       0.0000    0.0000    0.0000    0.0000   -0.0000    0.0025    0.0004    0.0000    0.0000   -0.0000
       85 V      5f2-       0.0000    0.0000    0.0000    0.0000   -0.0000    0.0044    0.0005    0.0000    0.0000    0.0000
       86 V      6f2-      -0.0000   -0.0000    0.0000    0.0000   -0.0000    0.0049    0.0006    0.0000    0.0000    0.0000
       87 V      7f2-       0.0000    0.0000    0.0000    0.0000   -0.0000    0.0042    0.0005    0.0000    0.0000   -0.0000
       88 V      8f2-      -0.0000   -0.0000    0.0000    0.0000   -0.0000    0.0029    0.0004    0.0000    0.0000    0.0001
       89 V      9f2-       0.0000    0.0000    0.0000    0.0000   -0.0000    0.0020    0.0002    0.0000    0.0000   -0.0000
       90 V      4f1-      -0.0000   -0.0000   -0.0000   -0.0000    0.0000   -0.0004    0.0029    0.0001    0.0000    0.0002
       91 V      5f1-      -0.0005   -0.0000   -0.0000   -0.0000    0.0000   -0.0006    0.0055    0.0002    0.0000    0.0010
       92 V      6f1-      -0.0005   -0.0000   -0.0000   -0.0000    0.0000   -0.0007    0.0060    0.0002    0.0000    0.0010
       93 V      7f1-      -0.0004   -0.0000   -0.0000    0.0000    0.0000   -0.0006    0.0053    0.0002    0.0000    0.0008
       94 V      8f1-      -0.0003   -0.0000   -0.0000   -0.0000    0.0000   -0.0004    0.0036    0.0001    0.0000    0.0005
       95 V      9f1-      -0.0001   -0.0000   -0.0000    0.0000    0.0000   -0.0003    0.0026    0.0001    0.0000    0.0002
       96 V      4f0       -0.0000    0.0000   -0.0001   -0.0000    0.0000   -0.0000   -0.0000    0.0000    0.0030   -0.0000
       97 V      5f0        0.0000   -0.0000   -0.0006    0.0001    0.0000   -0.0000   -0.0000    0.0000    0.0058   -0.0000
       98 V      6f0        0.0000   -0.0000   -0.0006    0.0001    0.0000   -0.0000   -0.0000    0.0000    0.0063   -0.0000
       99 V      7f0        0.0000   -0.0000   -0.0005   -0.0001    0.0000   -0.0000   -0.0000    0.0000    0.0057   -0.0000
      100 V      8f0        0.0000   -0.0000   -0.0003    0.0001    0.0000   -0.0000   -0.0000    0.0000    0.0037   -0.0000
      101 V      9f0       -0.0000    0.0000   -0.0001   -0.0001    0.0000   -0.0000   -0.0000    0.0000    0.0028   -0.0000
      102 V      4f1+      -0.0000    0.0000    0.0000   -0.0000    0.0004    0.0000    0.0001   -0.0029    0.0000    0.0000
      103 V      5f1+      -0.0000    0.0005   -0.0000    0.0000    0.0006    0.0000    0.0002   -0.0055    0.0000    0.0000
      104 V      6f1+      -0.0000    0.0005   -0.0000    0.0000    0.0007    0.0000    0.0002   -0.0060    0.0000    0.0000
      105 V      7f1+      -0.0000    0.0004   -0.0000   -0.0000    0.0006    0.0000    0.0002   -0.0053    0.0000    0.0000
      106 V      8f1+      -0.0000    0.0003   -0.0000    0.0000    0.0004    0.0000    0.0001   -0.0036    0.0000    0.0000
      107 V      9f1+      -0.0000    0.0001   -0.0000   -0.0000    0.0003    0.0000    0.0001   -0.0026    0.0000    0.0000
      108 V      4f2+      -0.0000    0.0000   -0.0000   -0.0000    0.0025    0.0000   -0.0000    0.0004   -0.0000    0.0000
      109 V      5f2+      -0.0000    0.0000   -0.0000   -0.0000    0.0044    0.0000   -0.0000    0.0005   -0.0000   -0.0000
      110 V      6f2+       0.0000   -0.0000   -0.0000   -0.0000    0.0049    0.0000   -0.0000    0.0006   -0.0000   -0.0000
      111 V      7f2+      -0.0000    0.0000   -0.0000    0.0000    0.0042    0.0000   -0.0000    0.0005   -0.0000    0.0000
      112 V      8f2+       0.0000   -0.0000   -0.0000   -0.0000    0.0029    0.0000   -0.0000    0.0004   -0.0000   -0.0000
      113 V      9f2+      -0.0000    0.0000   -0.0000    0.0000    0.0020    0.0000   -0.0000    0.0002   -0.0000    0.0000
      114 V      4f3+      -0.0000    0.0000    0.0000   -0.0000    0.0000    0.0000   -0.0000    0.0000    0.0001    0.0000
      115 V      5f3+      -0.0000    0.0000   -0.0000    0.0001    0.0000    0.0000   -0.0000    0.0000    0.0000    0.0000
      116 V      6f3+      -0.0000    0.0000    0.0000    0.0000    0.0000    0.0000   -0.0000    0.0000    0.0001    0.0000
      117 V      7f3+      -0.0000    0.0000   -0.0000   -0.0001    0.0000    0.0000   -0.0000    0.0000    0.0000    0.0000
      118 V      8f3+      -0.0000    0.0000    0.0001    0.0001    0.0000    0.0000   -0.0000    0.0000    0.0001    0.0000
      119 V      9f3+      -0.0000    0.0000   -0.0000   -0.0001    0.0000    0.0000   -0.0000    0.0000   -0.0000    0.0000
      120 V      5g4-       0.0000    0.0000   -0.0000    0.0000    0.0000   -0.0000    0.0000    0.0000    0.0000   -0.0000
      121 V      6g4-      -0.0000   -0.0000    0.0000   -0.0000    0.0000   -0.0000   -0.0000   -0.0000   -0.0000    0.0000
      122 V      7g4-      -0.0000   -0.0000    0.0000    0.0000   -0.0000    0.0000    0.0000    0.0000    0.0000    0.0000
      123 V      8g4-      -0.0000   -0.0000    0.0000   -0.0000    0.0000   -0.0000   -0.0000   -0.0000   -0.0000    0.0000
      124 V      5g3-       0.0000   -0.0000   -0.0000    0.0000    0.0000   -0.0000   -0.0000   -0.0000    0.0000   -0.0000
      125 V      6g3-       0.0000   -0.0000   -0.0000    0.0000    0.0000    0.0000   -0.0000   -0.0000    0.0000   -0.0000
      126 V      7g3-       0.0000   -0.0000   -0.0000    0.0000    0.0000   -0.0000   -0.0000   -0.0000    0.0000   -0.0000
      127 V      8g3-      -0.0000   -0.0000   -0.0000   -0.0000    0.0000    0.0000   -0.0000   -0.0000    0.0000   -0.0000
      128 V      5g2-       0.0000    0.0000    0.0000   -0.0000    0.0000   -0.0001   -0.0000   -0.0000    0.0000   -0.0000
      129 V      6g2-      -0.0000   -0.0000    0.0000   -0.0000    0.0000   -0.0002   -0.0000   -0.0000    0.0000    0.0000
      130 V      7g2-      -0.0000   -0.0000    0.0000   -0.0000    0.0000   -0.0002   -0.0000   -0.0000    0.0000    0.0000
      131 V      8g2-      -0.0000   -0.0000    0.0000    0.0000    0.0000   -0.0001   -0.0000   -0.0000    0.0000    0.0000
      132 V      5g1-       0.0000    0.0000    0.0000    0.0000   -0.0000    0.0000   -0.0002   -0.0000   -0.0000   -0.0001
      133 V      6g1-      -0.0001   -0.0000    0.0000   -0.0000   -0.0000    0.0000   -0.0003   -0.0000   -0.0000    0.0001
      134 V      7g1-      -0.0000   -0.0000    0.0000    0.0000   -0.0000    0.0000   -0.0003   -0.0000   -0.0000    0.0000
      135 V      8g1-      -0.0000   -0.0000    0.0000   -0.0000   -0.0000    0.0000   -0.0001   -0.0000   -0.0000    0.0000
      136 V      5g0       -0.0000    0.0000    0.0001   -0.0000   -0.0000    0.0000    0.0000   -0.0000   -0.0002    0.0000
      137 V      6g0        0.0000   -0.0000   -0.0001    0.0000   -0.0000    0.0000    0.0000   -0.0000   -0.0003   -0.0000
      138 V      7g0        0.0000   -0.0000   -0.0000   -0.0000   -0.0000    0.0000    0.0000   -0.0000   -0.0003   -0.0000
      139 V      8g0        0.0000   -0.0000   -0.0000    0.0000   -0.0000    0.0000    0.0000   -0.0000   -0.0001   -0.0000
      140 V      5g1+       0.0000   -0.0000    0.0000    0.0000   -0.0000   -0.0000   -0.0000    0.0002   -0.0000   -0.0000
      141 V      6g1+      -0.0000    0.0001   -0.0000    0.0000   -0.0000   -0.0000   -0.0000    0.0003   -0.0000    0.0000
      142 V      7g1+      -0.0000    0.0000   -0.0000   -0.0000   -0.0000   -0.0000   -0.0000    0.0003   -0.0000    0.0000
      143 V      8g1+      -0.0000    0.0000   -0.0000    0.0000   -0.0000   -0.0000   -0.0000    0.0001   -0.0000    0.0000
      144 V      5g2+      -0.0000    0.0000    0.0000   -0.0000   -0.0001   -0.0000    0.0000   -0.0000   -0.0000    0.0000
      145 V      6g2+       0.0000   -0.0000    0.0000   -0.0000   -0.0002   -0.0000    0.0000   -0.0000   -0.0000   -0.0000
      146 V      7g2+       0.0000   -0.0000    0.0000    0.0000   -0.0002   -0.0000    0.0000   -0.0000   -0.0000   -0.0000
      147 V      8g2+       0.0000   -0.0000   -0.0000   -0.0000   -0.0001   -0.0000    0.0000   -0.0000   -0.0000   -0.0000
      148 V      5g3+      -0.0000   -0.0000    0.0000    0.0000   -0.0000    0.0000   -0.0000    0.0000   -0.0000   -0.0000
      149 V      6g3+      -0.0000   -0.0000   -0.0000    0.0000   -0.0000    0.0000   -0.0000    0.0000    0.0000   -0.0000
      150 V      7g3+      -0.0000   -0.0000   -0.0000   -0.0000   -0.0000    0.0000   -0.0000    0.0000   -0.0000   -0.0000
      151 V      8g3+      -0.0000   -0.0000   -0.0000    0.0000   -0.0000    0.0000   -0.0000    0.0000    0.0000   -0.0000
      152 V      5g4+       0.0000   -0.0000    0.0000    0.0000    0.0000    0.0000    0.0000   -0.0000   -0.0000   -0.0000
      153 V      6g4+      -0.0000    0.0000   -0.0000    0.0000    0.0000    0.0000   -0.0000    0.0000    0.0000    0.0000
      154 V      7g4+      -0.0000    0.0000   -0.0000   -0.0000   -0.0000   -0.0000    0.0000   -0.0000   -0.0000    0.0000
      155 V      8g4+      -0.0000    0.0000    0.0000    0.0000    0.0000    0.0000   -0.0000    0.0000    0.0000    0.0000
      156 V      6h5-      -0.0000   -0.0000   -0.0000   -0.0000    0.0000   -0.0000   -0.0000   -0.0000   -0.0000    0.0000
      157 V      7h5-       0.0000    0.0000    0.0000   -0.0000    0.0000   -0.0000   -0.0000   -0.0000   -0.0000   -0.0000
      158 V      6h4-      -0.0000   -0.0000    0.0000    0.0000   -0.0000    0.0000   -0.0000   -0.0000   -0.0000    0.0000
      159 V      7h4-       0.0000    0.0000   -0.0000    0.0000   -0.0000    0.0000   -0.0000   -0.0000   -0.0000   -0.0000
      160 V      6h3-       0.0000    0.0000    0.0000    0.0000    0.0000   -0.0000    0.0000    0.0000   -0.0000    0.0000
      161 V      7h3-       0.0000    0.0000    0.0000   -0.0000    0.0000   -0.0000    0.0000    0.0000   -0.0000   -0.0000
      162 V      6h2-      -0.0000   -0.0000   -0.0000   -0.0000    0.0000   -0.0000   -0.0000   -0.0000   -0.0000    0.0000
      163 V      7h2-       0.0000    0.0000   -0.0000   -0.0000    0.0000   -0.0000   -0.0000   -0.0000   -0.0000   -0.0000
      164 V      6h1-      -0.0000   -0.0000    0.0000    0.0000   -0.0000    0.0000   -0.0000   -0.0000   -0.0000   -0.0000
      165 V      7h1-      -0.0000   -0.0000    0.0000    0.0000   -0.0000    0.0000   -0.0000   -0.0000   -0.0000   -0.0000
      166 V      6h0        0.0000   -0.0000    0.0000   -0.0000   -0.0000    0.0000    0.0000   -0.0000   -0.0001   -0.0000
      167 V      7h0       -0.0000    0.0000   -0.0000    0.0000   -0.0000    0.0000    0.0000   -0.0000   -0.0000    0.0000
      168 V      6h1+      -0.0000    0.0000   -0.0000   -0.0000   -0.0000   -0.0000   -0.0000    0.0000   -0.0000   -0.0000
      169 V      7h1+      -0.0000    0.0000    0.0000    0.0000   -0.0000   -0.0000   -0.0000    0.0000   -0.0000   -0.0000
      170 V      6h2+       0.0000   -0.0000    0.0000    0.0000   -0.0000   -0.0000    0.0000   -0.0000    0.0000   -0.0000
      171 V      7h2+      -0.0000    0.0000   -0.0000   -0.0000   -0.0000   -0.0000    0.0000   -0.0000    0.0000    0.0000
      172 V      6h3+       0.0000   -0.0000   -0.0000   -0.0000   -0.0000    0.0000    0.0000   -0.0000   -0.0000   -0.0000
      173 V      7h3+      -0.0000    0.0000    0.0000    0.0000   -0.0000    0.0000    0.0000   -0.0000   -0.0000    0.0000
      174 V      6h4+      -0.0000    0.0000   -0.0000   -0.0000   -0.0000   -0.0000   -0.0000    0.0000   -0.0000    0.0000
      175 V      7h4+       0.0000   -0.0000    0.0000    0.0000   -0.0000   -0.0000   -0.0000    0.0000   -0.0000   -0.0000
      176 V      6h5+       0.0000   -0.0000   -0.0000    0.0000   -0.0000   -0.0000    0.0000   -0.0000    0.0000   -0.0000
      177 V      7h5+      -0.0000    0.0000    0.0000    0.0000   -0.0000   -0.0000    0.0000   -0.0000    0.0000    0.0000

          Orbital           21        22        23        24        25        26        27        28        29        30    
          Energy           -0.0096   -0.0074    0.0620    0.0774    0.0774    0.0776    0.0776    0.0777    0.0777    0.0777
          Occ. No.          0.0000    0.0000    0.0000    0.0000    0.0000    0.0000    0.0000    0.0000    0.0000    0.0000

        1 V      1s         0.0000    0.0001    0.0001    0.0000   -0.0000   -0.0000    0.0000    0.0000    0.0000   -0.0000
        2 V      2s        -0.0000    0.0011    0.0128    0.0000   -0.0000   -0.0000    0.0000   -0.0000    0.0000   -0.0000
        3 V      3s         0.0000   -0.0041   -0.0761   -0.0000   -0.0000    0.0000   -0.0000    0.0000   -0.0000    0.0000
        4 V      4s        -0.0000    0.0176    0.2191   -0.0000    0.0001   -0.0000    0.0000   -0.0000    0.0000   -0.0000
        5 V      5s        -0.0000    0.0024   -0.4680    0.0000   -0.0000    0.0000   -0.0000    0.0000   -0.0000    0.0002
        6 V      6s         0.0000   -0.0274    0.0048   -0.0000    0.0000    0.0000   -0.0000    0.0000   -0.0000    0.0000
        7 V      7s         0.0000   -0.0387    0.4145    0.0000    0.0000   -0.0000    0.0000   -0.0000    0.0000   -0.0001
        8 V      8s         0.0000   -0.0236    0.3895    0.0000    0.0000   -0.0000    0.0000   -0.0000    0.0000   -0.0001
        9 V      9s         0.0000   -0.0278    0.5965    0.0000    0.0000   -0.0000    0.0000   -0.0000    0.0000   -0.0002
       10 V     10s         0.0000   -0.0093    0.2110    0.0000   -0.0000   -0.0000    0.0000   -0.0000    0.0000   -0.0001
       11 V      2px        0.0121   -0.0000   -0.0000   -0.0000    0.0000    0.0000    0.0000    0.0000   -0.0000    0.0000
       12 V      3px       -0.0808    0.0000    0.0000    0.0000   -0.0000   -0.0000   -0.0000   -0.0000    0.0001   -0.0000
       13 V      4px        0.4778   -0.0000   -0.0000   -0.0000    0.0000    0.0000    0.0000    0.0001   -0.0013    0.0000
       14 V      5px        0.0512   -0.0000   -0.0000   -0.0000    0.0000    0.0000    0.0000    0.0000   -0.0005    0.0000
       15 V      6px       -0.3837    0.0000   -0.0000    0.0000   -0.0000    0.0000    0.0000   -0.0000    0.0000    0.0000
       16 V      7px       -0.4630    0.0000    0.0000    0.0000   -0.0000   -0.0000   -0.0000   -0.0000    0.0004   -0.0000
       17 V      8px       -0.5728    0.0000    0.0000    0.0000   -0.0000   -0.0000   -0.0000   -0.0000    0.0006   -0.0000
       18 V      9px       -0.2628    0.0000    0.0000    0.0000   -0.0000   -0.0000   -0.0000   -0.0000    0.0003   -0.0000
       19 V     10px       -0.0506    0.0000    0.0000    0.0000   -0.0000   -0.0000   -0.0000   -0.0000    0.0001   -0.0000
       20 V      2py       -0.0002    0.0000    0.0000    0.0000    0.0000    0.0000   -0.0000    0.0000    0.0000   -0.0000
       21 V      3py        0.0012   -0.0000   -0.0000   -0.0000   -0.0000   -0.0000    0.0000   -0.0001   -0.0000    0.0000
       22 V      4py       -0.0071    0.0000    0.0000    0.0000    0.0000    0.0000   -0.0000    0.0013    0.0001   -0.0000
       23 V      5py       -0.0008    0.0000    0.0000    0.0000    0.0000    0.0000   -0.0000    0.0005    0.0000   -0.0000
       24 V      6py        0.0057   -0.0000    0.0000   -0.0000   -0.0000    0.0000   -0.0000   -0.0000   -0.0000   -0.0000
       25 V      7py        0.0068   -0.0000   -0.0000   -0.0000   -0.0000   -0.0000    0.0000   -0.0004   -0.0000    0.0000
       26 V      8py        0.0085   -0.0000   -0.0000   -0.0000   -0.0000   -0.0000    0.0000   -0.0006   -0.0000    0.0000
       27 V      9py        0.0039   -0.0000   -0.0000   -0.0000   -0.0000   -0.0000    0.0000   -0.0003   -0.0000    0.0000
       28 V     10py        0.0007   -0.0000   -0.0000   -0.0000   -0.0000   -0.0000    0.0000   -0.0001   -0.0000    0.0000
       29 V      2pz       -0.0000   -0.0144   -0.0024   -0.0000    0.0000    0.0000   -0.0000   -0.0000    0.0000    0.0000
       30 V      3pz        0.0000    0.0876    0.0089    0.0000   -0.0000   -0.0000    0.0000    0.0000   -0.0000   -0.0002
       31 V      4pz       -0.0000   -0.4810   -0.0106   -0.0000    0.0000    0.0000   -0.0000   -0.0000    0.0000    0.0017
       32 V      5pz       -0.0000   -0.0702   -0.0257   -0.0000    0.0000    0.0000   -0.0000   -0.0000    0.0000    0.0006
       33 V      6pz        0.0000    0.3679   -0.0061   -0.0000    0.0000    0.0000    0.0000    0.0000   -0.0000    0.0000
       34 V      7pz        0.0000    0.4606    0.0202    0.0000   -0.0000   -0.0000    0.0000    0.0000   -0.0000   -0.0005
       35 V      8pz        0.0000    0.5755    0.0359    0.0000   -0.0000   -0.0000    0.0000    0.0000   -0.0000   -0.0008
       36 V      9pz        0.0000    0.2649    0.0197    0.0000   -0.0000   -0.0000    0.0000    0.0000   -0.0000   -0.0004
       37 V     10pz        0.0000    0.0512    0.0044    0.0000   -0.0000   -0.0000    0.0000    0.0000   -0.0000   -0.0001
       38 V      3d2-      -0.0000   -0.0000   -0.0000   -0.0000   -0.0000    0.0000   -0.0012   -0.0000   -0.0000   -0.0000
       39 V      4d2-       0.0001   -0.0000    0.0000   -0.0000   -0.0000    0.0000   -0.0043    0.0000    0.0000   -0.0000
       40 V      5d2-       0.0001   -0.0000    0.0000   -0.0000   -0.0000    0.0001   -0.0056    0.0000    0.0000   -0.0000
       41 V      6d2-       0.0000   -0.0000    0.0000   -0.0000   -0.0000    0.0000   -0.0040    0.0000    0.0000   -0.0000
       42 V      7d2-       0.0000   -0.0000    0.0000   -0.0000   -0.0000    0.0000   -0.0036    0.0000    0.0000   -0.0000
       43 V      8d2-       0.0000   -0.0000    0.0000   -0.0000   -0.0000    0.0000   -0.0022    0.0000    0.0000   -0.0000
       44 V      9d2-       0.0000   -0.0000    0.0000   -0.0000   -0.0000    0.0000   -0.0011    0.0000    0.0000   -0.0000
       45 V     10d2-       0.0000   -0.0000    0.0000   -0.0000   -0.0000    0.0000   -0.0002    0.0000    0.0000   -0.0000
       46 V      3d1-       0.0001   -0.0000    0.0000   -0.0000   -0.0000   -0.0000    0.0001   -0.0017   -0.0001    0.0000
       47 V      4d1-       0.0002   -0.0000   -0.0000   -0.0000   -0.0000    0.0000   -0.0000   -0.0054   -0.0002   -0.0000
       48 V      5d1-       0.0002   -0.0000   -0.0000   -0.0000   -0.0000    0.0000   -0.0001   -0.0068   -0.0003   -0.0000
       49 V      6d1-       0.0002   -0.0000   -0.0000   -0.0000   -0.0000    0.0000   -0.0001   -0.0049   -0.0002   -0.0000
       50 V      7d1-       0.0001   -0.0000   -0.0000   -0.0000   -0.0000    0.0000   -0.0001   -0.0044   -0.0002   -0.0000
       51 V      8d1-       0.0001   -0.0000   -0.0000   -0.0000   -0.0000    0.0000   -0.0000   -0.0027   -0.0001   -0.0000
       52 V      9d1-       0.0000   -0.0000   -0.0000   -0.0000   -0.0000    0.0000   -0.0000   -0.0013   -0.0001   -0.0000
       53 V     10d1-       0.0000   -0.0000   -0.0000   -0.0000   -0.0000    0.0000   -0.0000   -0.0003   -0.0000   -0.0000
       54 V      3d0        0.0000    0.0130    0.0016   -0.0000    0.0001   -0.0000    0.0000   -0.0000    0.0000   -0.0019
       55 V      4d0        0.0000    0.0078   -0.0005    0.0000   -0.0000   -0.0000    0.0000   -0.0000    0.0000   -0.0058
       56 V      5d0        0.0000    0.0070   -0.0020    0.0000   -0.0001   -0.0000    0.0000   -0.0000    0.0000   -0.0071
       57 V      6d0        0.0000    0.0052   -0.0002    0.0000   -0.0001   -0.0000    0.0000   -0.0000    0.0000   -0.0051
       58 V      7d0        0.0000    0.0048   -0.0010    0.0000   -0.0001   -0.0000    0.0000   -0.0000    0.0000   -0.0046
       59 V      8d0        0.0000    0.0026    0.0002    0.0000   -0.0001   -0.0000    0.0000   -0.0000    0.0000   -0.0028
       60 V      9d0        0.0000    0.0015   -0.0003    0.0000   -0.0000   -0.0000    0.0000   -0.0000    0.0000   -0.0014
       61 V     10d0        0.0000   -0.0000    0.0002    0.0000   -0.0000   -0.0000    0.0000   -0.0000    0.0000   -0.0003
       62 V      3d1+      -0.0088    0.0000    0.0000    0.0000   -0.0000   -0.0001   -0.0000   -0.0001    0.0017    0.0000
       63 V      4d1+      -0.0155    0.0000    0.0000    0.0000   -0.0000    0.0000    0.0000   -0.0002    0.0054    0.0000
       64 V      5d1+      -0.0147    0.0000   -0.0000    0.0000   -0.0000    0.0001    0.0000   -0.0003    0.0068    0.0000
       65 V      6d1+      -0.0116    0.0000   -0.0000    0.0000   -0.0000    0.0001    0.0000   -0.0002    0.0049    0.0000
       66 V      7d1+      -0.0084    0.0000   -0.0000    0.0000   -0.0000    0.0001    0.0000   -0.0002    0.0044    0.0000
       67 V      8d1+      -0.0060    0.0000   -0.0000    0.0000   -0.0000    0.0000    0.0000   -0.0001    0.0027    0.0000
       68 V      9d1+      -0.0023    0.0000   -0.0000    0.0000   -0.0000    0.0000    0.0000   -0.0001    0.0013    0.0000
       69 V     10d1+      -0.0009    0.0000   -0.0000    0.0000   -0.0000    0.0000    0.0000   -0.0000    0.0003    0.0000
       70 V      3d2+      -0.0011   -0.0000   -0.0000    0.0000   -0.0000   -0.0012   -0.0000    0.0000   -0.0000    0.0000
       71 V      4d2+       0.0036    0.0000   -0.0000    0.0000   -0.0000   -0.0043   -0.0000   -0.0000    0.0000    0.0000
       72 V      5d2+       0.0035    0.0000   -0.0000    0.0000   -0.0000   -0.0056   -0.0001   -0.0000    0.0000    0.0000
       73 V      6d2+       0.0029    0.0000    0.0000    0.0000   -0.0000   -0.0040   -0.0000   -0.0000    0.0000    0.0000
       74 V      7d2+       0.0017    0.0000    0.0000    0.0000   -0.0000   -0.0036   -0.0000   -0.0000    0.0000    0.0000
       75 V      8d2+       0.0015    0.0000    0.0000    0.0000   -0.0000   -0.0022   -0.0000   -0.0000    0.0000    0.0000
       76 V      9d2+       0.0004    0.0000    0.0000    0.0000   -0.0000   -0.0011   -0.0000   -0.0000    0.0000    0.0000
       77 V     10d2+       0.0004    0.0000    0.0000   -0.0000   -0.0000   -0.0002   -0.0000   -0.0000    0.0000    0.0000
       78 V      4f3-       0.0000    0.0000   -0.0000    0.1258    0.0000   -0.0000    0.0000   -0.0000   -0.0000    0.0000
       79 V      5f3-       0.0000   -0.0000   -0.0000    0.3785    0.0000   -0.0000    0.0000   -0.0000   -0.0000    0.0000
       80 V      6f3-       0.0000   -0.0000   -0.0000    0.5072    0.0000   -0.0000    0.0000   -0.0000   -0.0000    0.0000
       81 V      7f3-       0.0000   -0.0000   -0.0000    0.5483    0.0000   -0.0000    0.0000   -0.0000   -0.0000    0.0000
       82 V      8f3-       0.0000    0.0000   -0.0000    0.4095    0.0000   -0.0000    0.0000   -0.0000   -0.0000    0.0000
       83 V      9f3-       0.0000    0.0000   -0.0000    0.3397    0.0000   -0.0000    0.0000   -0.0000   -0.0000    0.0000
       84 V      4f2-      -0.0000   -0.0000   -0.0000   -0.0000    0.0000   -0.0013    0.1257    0.0001    0.0000    0.0000
       85 V      5f2-       0.0000   -0.0000   -0.0000   -0.0000    0.0000   -0.0040    0.3783    0.0002    0.0000    0.0000
       86 V      6f2-       0.0000   -0.0000   -0.0000   -0.0000    0.0000   -0.0054    0.5070    0.0003    0.0000    0.0000
       87 V      7f2-      -0.0000   -0.0000   -0.0000   -0.0000    0.0000   -0.0058    0.5483    0.0003    0.0000    0.0000
       88 V      8f2-       0.0000   -0.0000   -0.0000   -0.0000    0.0000   -0.0044    0.4095    0.0002    0.0000    0.0000
       89 V      9f2-      -0.0000   -0.0000   -0.0000   -0.0000    0.0000   -0.0036    0.3398    0.0002    0.0000    0.0000
       90 V      4f1-       0.0000   -0.0000   -0.0000    0.0000    0.0000    0.0000   -0.0001    0.1256    0.0050    0.0000
       91 V      5f1-       0.0000   -0.0000   -0.0000    0.0000    0.0000    0.0000   -0.0002    0.3779    0.0150    0.0000
       92 V      6f1-       0.0000   -0.0000   -0.0000    0.0000    0.0000    0.0000   -0.0003    0.5066    0.0201    0.0000
       93 V      7f1-       0.0000   -0.0000   -0.0000    0.0000    0.0000    0.0000   -0.0003    0.5479    0.0218    0.0000
       94 V      8f1-       0.0000   -0.0000   -0.0000    0.0000    0.0000    0.0000   -0.0002    0.4093    0.0163    0.0000
       95 V      9f1-       0.0000   -0.0000   -0.0000    0.0000    0.0000    0.0000   -0.0002    0.3397    0.0135    0.0000
       96 V      4f0        0.0000    0.0002    0.0001    0.0000   -0.0001    0.0000   -0.0000   -0.0000    0.0000    0.1256
       97 V      5f0        0.0000    0.0012   -0.0000    0.0000   -0.0002    0.0000   -0.0000   -0.0000    0.0000    0.3781
       98 V      6f0        0.0000    0.0011    0.0001    0.0000   -0.0003    0.0000   -0.0000   -0.0000    0.0000    0.5070
       99 V      7f0        0.0000    0.0009    0.0004    0.0000   -0.0004    0.0000   -0.0000   -0.0000    0.0000    0.5483
      100 V      8f0        0.0000    0.0005   -0.0000    0.0000   -0.0003    0.0000   -0.0000   -0.0000    0.0000    0.4097
      101 V      9f0        0.0000    0.0002    0.0004    0.0000   -0.0002    0.0000   -0.0000   -0.0000    0.0000    0.3400
      102 V      4f1+      -0.0002    0.0000    0.0000   -0.0000    0.0000    0.0001    0.0000    0.0050   -0.1256    0.0000
      103 V      5f1+      -0.0010    0.0000    0.0000   -0.0000    0.0000    0.0002    0.0000    0.0150   -0.3779    0.0000
      104 V      6f1+      -0.0010    0.0000    0.0000   -0.0000    0.0000    0.0003    0.0000    0.0201   -0.5066    0.0000
      105 V      7f1+      -0.0008    0.0000    0.0000   -0.0000    0.0000    0.0003    0.0000    0.0218   -0.5479    0.0000
      106 V      8f1+      -0.0005    0.0000    0.0000   -0.0000    0.0000    0.0002    0.0000    0.0163   -0.4093    0.0000
      107 V      9f1+      -0.0002    0.0000    0.0000   -0.0000    0.0000    0.0002    0.0000    0.0135   -0.3397    0.0000
      108 V      4f2+      -0.0000    0.0000    0.0000   -0.0000   -0.0000    0.1257    0.0013   -0.0000    0.0001   -0.0000
      109 V      5f2+       0.0000    0.0000    0.0000   -0.0000   -0.0000    0.3783    0.0040   -0.0000    0.0002   -0.0000
      110 V      6f2+       0.0000    0.0000    0.0000   -0.0000   -0.0000    0.5070    0.0054   -0.0000    0.0003   -0.0000
      111 V      7f2+      -0.0000    0.0000    0.0000   -0.0000   -0.0000    0.5483    0.0058   -0.0000    0.0003   -0.0000
      112 V      8f2+       0.0001    0.0000    0.0000   -0.0000   -0.0000    0.4095    0.0044   -0.0000    0.0002   -0.0000
      113 V      9f2+      -0.0000    0.0000    0.0000   -0.0000   -0.0000    0.3398    0.0036   -0.0000    0.0002   -0.0000
      114 V      4f3+      -0.0000   -0.0000    0.0000   -0.0000    0.1258    0.0000    0.0000   -0.0000    0.0000    0.0001
      115 V      5f3+      -0.0000    0.0000   -0.0001   -0.0000    0.3785    0.0000    0.0000   -0.0000    0.0000    0.0002
      116 V      6f3+      -0.0000   -0.0000   -0.0001   -0.0000    0.5072    0.0000    0.0000   -0.0000    0.0000    0.0003
      117 V      7f3+      -0.0000    0.0000    0.0001   -0.0000    0.5483    0.0000    0.0000   -0.0000    0.0000    0.0004
      118 V      8f3+      -0.0000   -0.0001   -0.0002   -0.0000    0.4095    0.0000    0.0000   -0.0000    0.0000    0.0003
      119 V      9f3+      -0.0000    0.0001    0.0002   -0.0000    0.3397    0.0000    0.0000   -0.0000    0.0000    0.0002
      120 V      5g4-      -0.0000    0.0000   -0.0000    0.0000    0.0000   -0.0000    0.0000    0.0000    0.0000    0.0000
      121 V      6g4-       0.0000   -0.0000    0.0000    0.0000    0.0000    0.0000   -0.0000    0.0000    0.0000   -0.0000
      122 V      7g4-       0.0000   -0.0000   -0.0000    0.0000   -0.0000   -0.0000    0.0000    0.0000    0.0000    0.0000
      123 V      8g4-       0.0000    0.0000    0.0000    0.0000   -0.0000    0.0000   -0.0000    0.0000    0.0000   -0.0000
      124 V      5g3-      -0.0000    0.0000   -0.0000    0.0002    0.0000   -0.0000    0.0000   -0.0000   -0.0000    0.0000
      125 V      6g3-      -0.0000    0.0000   -0.0000    0.0006    0.0000   -0.0000    0.0000   -0.0000   -0.0000    0.0000
      126 V      7g3-      -0.0000    0.0000   -0.0000    0.0006    0.0000   -0.0000    0.0000   -0.0000   -0.0000    0.0000
      127 V      8g3-      -0.0000    0.0000   -0.0000    0.0005    0.0000   -0.0000    0.0000   -0.0000   -0.0000    0.0000
      128 V      5g2-      -0.0000   -0.0000    0.0000   -0.0000    0.0000   -0.0000    0.0003    0.0000    0.0000    0.0000
      129 V      6g2-       0.0000   -0.0000   -0.0000   -0.0000    0.0000   -0.0000    0.0008    0.0000    0.0000    0.0000
      130 V      7g2-       0.0000   -0.0000   -0.0000   -0.0000    0.0000   -0.0000    0.0008    0.0000    0.0000    0.0000
      131 V      8g2-       0.0000   -0.0000   -0.0000   -0.0000    0.0000   -0.0000    0.0006    0.0000    0.0000    0.0000
      132 V      5g1-      -0.0000   -0.0000   -0.0000    0.0000    0.0000    0.0000   -0.0000    0.0003    0.0000   -0.0000
      133 V      6g1-       0.0000   -0.0000    0.0000    0.0000    0.0000    0.0000   -0.0000    0.0008    0.0000   -0.0000
      134 V      7g1-       0.0000   -0.0000   -0.0000    0.0000    0.0000    0.0000   -0.0000    0.0009    0.0000   -0.0000
      135 V      8g1-       0.0000   -0.0000    0.0000    0.0000    0.0000    0.0000   -0.0000    0.0007    0.0000   -0.0000
      136 V      5g0       -0.0000   -0.0001   -0.0000    0.0000   -0.0000    0.0000   -0.0000   -0.0000    0.0000    0.0003
      137 V      6g0        0.0000    0.0001   -0.0000    0.0000   -0.0000    0.0000   -0.0000   -0.0000    0.0000    0.0009
      138 V      7g0        0.0000    0.0000    0.0000    0.0000   -0.0000    0.0000   -0.0000   -0.0000    0.0000    0.0009
      139 V      8g0        0.0000    0.0000   -0.0000    0.0000   -0.0000    0.0000   -0.0000   -0.0000    0.0000    0.0007
      140 V      5g1+       0.0001   -0.0000   -0.0000   -0.0000    0.0000    0.0000    0.0000    0.0000   -0.0003    0.0000
      141 V      6g1+      -0.0001    0.0000   -0.0000   -0.0000    0.0000    0.0000    0.0000    0.0000   -0.0008    0.0000
      142 V      7g1+      -0.0000    0.0000    0.0000   -0.0000    0.0000    0.0000    0.0000    0.0000   -0.0009    0.0000
      143 V      8g1+      -0.0000    0.0000   -0.0000   -0.0000    0.0000    0.0000    0.0000    0.0000   -0.0007    0.0000
      144 V      5g2+      -0.0000   -0.0000    0.0000    0.0000   -0.0000    0.0003    0.0000   -0.0000    0.0000   -0.0000
      145 V      6g2+       0.0000   -0.0000    0.0000    0.0000   -0.0000    0.0008    0.0000   -0.0000    0.0000   -0.0000
      146 V      7g2+       0.0000   -0.0000   -0.0000    0.0000   -0.0000    0.0008    0.0000   -0.0000    0.0000   -0.0000
      147 V      8g2+       0.0000   -0.0000    0.0000    0.0000   -0.0000    0.0006    0.0000   -0.0000    0.0000   -0.0000
      148 V      5g3+       0.0000   -0.0000   -0.0000   -0.0000    0.0002    0.0000    0.0000   -0.0000    0.0000    0.0000
      149 V      6g3+       0.0000    0.0000    0.0000   -0.0000    0.0006    0.0000    0.0000   -0.0000    0.0000    0.0000
      150 V      7g3+       0.0000    0.0000    0.0000   -0.0000    0.0006    0.0000    0.0000   -0.0000    0.0000    0.0000
      151 V      8g3+       0.0000    0.0000   -0.0000   -0.0000    0.0005    0.0000    0.0000   -0.0000    0.0000    0.0000
      152 V      5g4+       0.0000   -0.0000   -0.0000   -0.0000    0.0000   -0.0000   -0.0000    0.0000   -0.0000    0.0000
      153 V      6g4+      -0.0000    0.0000    0.0000   -0.0000    0.0000    0.0000    0.0000    0.0000   -0.0000    0.0000
      154 V      7g4+      -0.0000    0.0000    0.0000    0.0000    0.0000   -0.0000   -0.0000    0.0000   -0.0000    0.0000
      155 V      8g4+      -0.0000   -0.0000   -0.0000    0.0000    0.0000    0.0000    0.0000    0.0000   -0.0000    0.0000
      156 V      6h5-       0.0000    0.0000    0.0000   -0.0000    0.0000   -0.0000    0.0000    0.0000    0.0000    0.0000
[...]
         1    9       1.12181729E-03  1.16442860E-05  1.51682008E-15  3.37853137E+05  3.37853137E+05
         1   11       1.44198737E-05  2.74489762E-02  7.24392150E+03  6.36278266E-09  7.24394895E+03
         1   13       1.44216175E-05  7.24479752E+03  2.74454641E-02  2.48594518E-06  7.24482497E+03
         1   15       7.71218102E-04  3.42369442E-01  3.89642374E+05  9.84011161E-10  3.89642717E+05
         1   17       7.71216678E-04  3.89641660E+05  3.42369898E-01  4.43660093E-06  3.89642002E+05
         2    4       3.66833276E-01  9.14169192E-01  4.29544955E+07  2.76837737E-12  4.29544964E+07
         2    6       3.66833304E-01  4.29545091E+07  9.14169248E-01  3.80771741E-05  4.29545100E+07
         2    8       3.68965710E-01  3.64839759E-05  6.02212513E-13  4.53963115E+07  4.53963115E+07
         2   10       1.12181729E-03  1.16442860E-05  1.51682008E-15  3.37853137E+05  3.37853137E+05
         2   12       1.44198737E-05  2.74489762E-02  7.24392150E+03  6.36278266E-09  7.24394895E+03
         2   14       1.44216175E-05  7.24479752E+03  2.74454641E-02  2.48594518E-06  7.24482497E+03
         2   16       7.71218102E-04  3.42369442E-01  3.89642374E+05  9.84011161E-10  3.89642717E+05
         2   18       7.71216678E-04  3.89641660E+05  3.42369898E-01  4.43660093E-06  3.89642002E+05
         3    7       5.96326700E-05  9.32921326E-08  4.38354947E+00  1.06640272E-18  4.38354956E+00
         3    9       1.95783573E-01  1.77839281E-01  8.35623657E+06  5.48583221E-13  8.35623675E+06
         3   11       2.93632582E-01  3.89942076E+07  1.70725450E+02  4.64357962E+05  3.94587362E+07
         3   13       2.90177884E-01  1.70715621E+02  3.89943170E+07  1.50551192E+00  3.89944893E+07
         3   15       2.94787828E-01  4.75930045E+05  5.58691796E-01  3.95764454E+07  4.00523761E+07
         3   17       3.50285877E-03  5.58472721E-01  4.75902779E+05  2.47931321E+01  4.75928131E+05
         4    8       5.96326700E-05  9.32921326E-08  4.38354947E+00  1.06640272E-18  4.38354956E+00
         4   10       1.95783573E-01  1.77839281E-01  8.35623657E+06  5.48583221E-13  8.35623675E+06
         4   12       2.93632582E-01  3.89942076E+07  1.70725450E+02  4.64357962E+05  3.94587362E+07
         4   14       2.90177884E-01  1.70715621E+02  3.89943170E+07  1.50551192E+00  3.89944893E+07
         4   16       2.94787828E-01  4.75930045E+05  5.58691796E-01  3.95764454E+07  4.00523761E+07
         4   18       3.50285877E-03  5.58472721E-01  4.75902779E+05  2.47931321E+01  4.75928131E+05
         5    7       5.96323780E-05  4.38348588E+00  9.32902644E-08  7.61155904E-11  4.38348598E+00
         5    9       1.95783593E-01  8.35623410E+06  1.77840002E-01  7.59434033E-06  8.35623428E+06
         5   11       2.90177103E-01  1.70706019E+02  3.89942033E+07  1.50537866E+00  3.89943756E+07
         5   13       2.93631974E-01  3.89941562E+07  1.70715642E+02  4.64318744E+05  3.94586457E+07
         5   15       3.50300074E-03  5.58207642E-01  4.75921951E+05  2.47931507E+01  4.75947302E+05
         5   17       2.94787766E-01  4.75885195E+05  5.58466122E-01  3.95764739E+07  4.00523596E+07
         6    8       5.96323780E-05  4.38348588E+00  9.32902644E-08  7.61155904E-11  4.38348598E+00
         6   10       1.95783593E-01  8.35623410E+06  1.77840002E-01  7.59434033E-06  8.35623428E+06
         6   12       2.90177103E-01  1.70706019E+02  3.89942033E+07  1.50537866E+00  3.89943756E+07
         6   14       2.93631974E-01  3.89941562E+07  1.70715642E+02  4.64318744E+05  3.94586457E+07
         6   16       3.50300074E-03  5.58207642E-01  4.75921951E+05  2.47931507E+01  4.75947302E+05
         6   18       2.94787766E-01  4.75885195E+05  5.58466122E-01  3.95764739E+07  4.00523596E+07
         7    9       1.96634597E-01  6.05559223E-06  1.02112237E-13  7.71042253E+06  7.71042253E+06
         7   11       3.37019624E-03  1.63649211E+00  4.31952695E+05  5.15362318E-07  4.31954332E+05
         7   13       3.37002512E-03  4.31930762E+05  1.63656430E+00  1.31667492E-04  4.31932399E+05
         7   15       2.86331872E-01  3.26118622E+01  3.71146963E+07  9.87893266E-08  3.71147289E+07
         7   17       2.86332044E-01  3.71147196E+07  3.26118510E+01  1.46070244E-04  3.71147522E+07
         8   10       1.96634597E-01  6.05559223E-06  1.02112237E-13  7.71042253E+06  7.71042253E+06
         8   12       3.37019624E-03  1.63649211E+00  4.31952695E+05  5.15362318E-07  4.31954332E+05
         8   14       3.37002512E-03  4.31930762E+05  1.63656430E+00  1.31667492E-04  4.31932399E+05
         8   16       2.86331872E-01  3.26118622E+01  3.71146963E+07  9.87893266E-08  3.71147289E+07
         8   18       2.86332044E-01  3.71147196E+07  3.26118510E+01  1.46070244E-04  3.71147522E+07
         9   15       1.81731747E-04  4.19127890E-03  4.76993178E+03  9.42626698E-13  4.76993597E+03
         9   17       1.81731939E-04  4.76993710E+03  4.19119768E-03  6.81340967E-09  4.76994129E+03
        10   16       1.81731747E-04  4.19127890E-03  4.76993178E+03  9.42626698E-13  4.76993597E+03
        10   18       1.81731939E-04  4.76993710E+03  4.19119768E-03  6.81340967E-09  4.76994129E+03
     -----------------------------------------------------------------------------------------------
--

++ Velocity transition strengths (SO states):
   ------------------------------------------
    for osc. strength at least    1.0000000000000001E-005

      From   To        Osc. strength     Einstein coefficients Ax, Ay, Az (sec-1)    Total A (sec-1)
     -----------------------------------------------------------------------------------------------
         1    3       3.45555811E-01  8.61148038E-01  4.04631425E+07  2.65454732E-12  4.04631434E+07
         1    5       3.45555824E-01  4.04631537E+07  8.61147068E-01  3.54607368E-05  4.04631546E+07
         1    7       3.45753017E-01  3.45932109E-05  5.37213234E-13  4.25404469E+07  4.25404469E+07
         1    9       1.12435210E-03  1.20605795E-05  1.81736972E-15  3.38617713E+05  3.38617713E+05
         1   11       1.22337677E-05  2.32876899E-02  6.14573764E+03  5.34811831E-09  6.14576093E+03
         1   13       1.22352475E-05  6.14648106E+03  2.32847081E-02  2.07161730E-06  6.14650435E+03
         1   15       6.35983390E-04  2.82335260E-01  3.21318884E+05  8.22533026E-10  3.21319166E+05
         1   17       6.35982193E-04  3.21318283E+05  2.82335562E-01  3.76267368E-06  3.21318566E+05
         2    4       3.45555811E-01  8.61148038E-01  4.04631425E+07  2.65454732E-12  4.04631434E+07
         2    6       3.45555824E-01  4.04631537E+07  8.61147068E-01  3.54607368E-05  4.04631546E+07
         2    8       3.45753017E-01  3.45932109E-05  5.37213234E-13  4.25404469E+07  4.25404469E+07
         2   10       1.12435210E-03  1.20605795E-05  1.81736972E-15  3.38617713E+05  3.38617713E+05
         2   12       1.22337677E-05  2.32876899E-02  6.14573764E+03  5.34811831E-09  6.14576093E+03
         2   14       1.22352475E-05  6.14648106E+03  2.32847081E-02  2.07161730E-06  6.14650435E+03
         2   16       6.35983390E-04  2.82335260E-01  3.21318884E+05  8.22533026E-10  3.21319166E+05
         2   18       6.35982193E-04  3.21318283E+05  2.82335562E-01  3.76267368E-06  3.21318566E+05
         3    7       4.01265358E-04  6.27732557E-07  2.94967953E+01  5.30939690E-17  2.94967960E+01
         3    9       2.28904167E-01  2.07925800E-01  9.76989027E+06  6.53158963E-13  9.76989048E+06
         3   11       1.30452541E-01  1.73232610E+07  7.58451844E+01  2.07109754E+05  1.75304466E+07
         3   13       1.28911702E-01  7.58407866E+01  1.73233094E+07  6.71478059E-01  1.73233859E+07
         3   15       1.30952333E-01  2.10760377E+05  2.47410753E-01  1.75815965E+07  1.77923571E+07
         3   17       1.55119725E-03  2.47313486E-01  2.10748299E+05  1.10141969E+01  2.10759561E+05
         4    8       4.01265358E-04  6.27732557E-07  2.94967953E+01  5.30939690E-17  2.94967960E+01
         4   10       2.28904167E-01  2.07925800E-01  9.76989027E+06  6.53158963E-13  9.76989048E+06
         4   12       1.30452541E-01  1.73232610E+07  7.58451844E+01  2.07109754E+05  1.75304466E+07
         4   14       1.28911702E-01  7.58407866E+01  1.73233094E+07  6.71478059E-01  1.73233859E+07
         4   16       1.30952333E-01  2.10760377E+05  2.47410753E-01  1.75815965E+07  1.77923571E+07
         4   18       1.55119725E-03  2.47313486E-01  2.10748299E+05  1.10141969E+01  2.10759561E+05
         5    7       4.01268737E-04  2.94967603E+01  6.27784499E-07  1.82322398E-09  2.94967609E+01
         5    9       2.28904206E-01  9.76988803E+06  2.07924989E-01  8.81881937E-06  9.76988823E+06
         5   11       1.28911323E-01  7.58364630E+01  1.73232545E+07  6.71418593E-01  1.73233310E+07
         5   13       1.30452237E-01  1.73232337E+07  7.58407700E+01  2.07092225E+05  1.75304018E+07
         5   15       1.55125996E-03  2.47195782E-01  2.10756767E+05  1.10142064E+01  2.10768028E+05
         5   17       1.30952271E-01  2.10740421E+05  2.47310511E-01  1.75816046E+07  1.77923452E+07
         6    8       4.01268737E-04  2.94967603E+01  6.27784499E-07  1.82322398E-09  2.94967609E+01
         6   10       2.28904206E-01  9.76988803E+06  2.07924989E-01  8.81881937E-06  9.76988823E+06
         6   12       1.28911323E-01  7.58364630E+01  1.73232545E+07  6.71418593E-01  1.73233310E+07
         6   14       1.30452237E-01  1.73232337E+07  7.58407700E+01  2.07092225E+05  1.75304018E+07
         6   16       1.55125996E-03  2.47195782E-01  2.10756767E+05  1.10142064E+01  2.10768028E+05
         6   18       1.30952271E-01  2.10740421E+05  2.47310511E-01  1.75816046E+07  1.77923452E+07
         7    9       2.33557333E-01  7.19808303E-06  1.16330254E-13  9.15826620E+06  9.15826620E+06
         7   11       1.41756954E-03  6.88342619E-01  1.81688267E+05  2.20284923E-07  1.81688955E+05
         7   13       1.41749772E-03  1.81679061E+05  6.88372910E-01  5.58408169E-05  1.81679750E+05
         7   15       1.20574239E-01  1.37328913E+01  1.56290384E+07  4.17987527E-08  1.56290521E+07
         7   17       1.20574312E-01  1.56290483E+07  1.37328843E+01  6.11980299E-05  1.56290620E+07
         8   10       2.33557333E-01  7.19808303E-06  1.16330254E-13  9.15826620E+06  9.15826620E+06
         8   12       1.41756954E-03  6.88342619E-01  1.81688267E+05  2.20284923E-07  1.81688955E+05
         8   14       1.41749772E-03  1.81679061E+05  6.88372910E-01  5.58408169E-05  1.81679750E+05
         8   16       1.20574239E-01  1.37328913E+01  1.56290384E+07  4.17987527E-08  1.56290521E+07
         8   18       1.20574312E-01  1.56290483E+07  1.37328843E+01  6.11980299E-05  1.56290620E+07
         9   15       1.02121007E-03  2.35520439E-02  2.68038984E+04  4.57921190E-11  2.68039220E+04
         9   17       1.02120883E-03  2.68038674E+04  2.35519111E-02  1.39604515E-07  2.68038909E+04
        10   16       1.02121007E-03  2.35520439E-02  2.68038984E+04  4.57921190E-11  2.68039220E+04
        10   18       1.02120883E-03  2.68038674E+04  2.35519111E-02  1.39604515E-07  2.68038909E+04
        11   15       4.92326769E-02  1.96126954E+02  1.63127778E-03  5.32617596E+00  2.01454761E+02
        11   17       4.79309277E-02  1.63096816E-03  1.96127392E+02  5.42278379E-06  1.96129028E+02
        12   16       4.92326769E-02  1.96126954E+02  1.63127778E-03  5.32617596E+00  2.01454761E+02
        12   18       4.79309277E-02  1.63096816E-03  1.96127392E+02  5.42278379E-06  1.96129028E+02
        13   15       4.79313612E-02  1.63111691E-03  1.96128282E+02  5.42385646E-06  1.96129919E+02
        13   17       4.92323039E-02  1.96126695E+02  1.63112258E-03  5.32581647E+00  2.01454142E+02
        14   16       4.79313612E-02  1.63111691E-03  1.96128282E+02  5.42385646E-06  1.96129919E+02
        14   18       4.92323039E-02  1.96126695E+02  1.63112258E-03  5.32581647E+00  2.01454142E+02
     -----------------------------------------------------------------------------------------------
--

++ Length and velocity gauge comparison (SO states):

 --------------------------------------------------
 A comparison between the dipole oscillator strengths in 
 length and velocity gauge will be performed

 All dipole oscillator differences above the tolerance of   0.10000000000000001       will be printed 

 Due to basis set deficiency these oscillator may be problematic 

 The tolerance is defined as ABS(1-O_l/O_v) 
 O_l : dipole oscillator strength in length gauge
 O_p : dipole oscillator strength in velocity gauge
 --------------------------------------------------

  Problematic transitions have been found

      From   To       Difference (%) Osc. st. (len.) Osc. st. (vel.)
     ---------------------------------------------------------------
         1   11            17.869442  1.44198737E-05  1.22337677E-05
         1   13            17.869438  1.44216175E-05  1.22352475E-05
         1   15            21.263875  7.71218102E-04  6.35983390E-04
         1   17            21.263879  7.71216678E-04  6.35982193E-04
         2   12            17.869442  1.44198737E-05  1.22337677E-05
         2   14            17.869438  1.44216175E-05  1.22352475E-05
         2   16            21.263875  7.71218102E-04  6.35983390E-04
         2   18            21.263879  7.71216678E-04  6.35982193E-04
         3    7            85.138844  5.96326700E-05  4.01265358E-04
         3    9            14.469197  1.95783573E-01  2.28904167E-01
         3   11           125.087668  2.93632582E-01  1.30452541E-01
         3   13           125.098171  2.90177884E-01  1.28911702E-01
         3   15           125.110788  2.94787828E-01  1.30952333E-01
         3   17           125.816463  3.50285877E-03  1.55119725E-03
         4    8            85.138844  5.96326700E-05  4.01265358E-04
         4   10            14.469197  1.95783573E-01  2.28904167E-01
         4   12           125.087668  2.93632582E-01  1.30452541E-01
         4   14           125.098171  2.90177884E-01  1.28911702E-01
         4   16           125.110788  2.94787828E-01  1.30952333E-01
         4   18           125.816463  3.50285877E-03  1.55119725E-03
         5    7            85.139042  5.96323780E-05  4.01268737E-04
         5    9            14.469202  1.95783593E-01  2.28904206E-01
         5   11           125.098228  2.90177103E-01  1.28911323E-01
         5   13           125.087727  2.93631974E-01  1.30452237E-01
         5   15           125.816487  3.50300074E-03  1.55125996E-03
         5   17           125.110846  2.94787766E-01  1.30952271E-01
         6    8            85.139042  5.96323780E-05  4.01268737E-04
         6   10            14.469202  1.95783593E-01  2.28904206E-01
         6   12           125.098228  2.90177103E-01  1.28911323E-01
         6   14           125.087727  2.93631974E-01  1.30452237E-01
         6   16           125.816487  3.50300074E-03  1.55125996E-03
         6   18           125.110846  2.94787766E-01  1.30952271E-01
         7    9            15.808853  1.96634597E-01  2.33557333E-01
         7   11           137.744685  3.37019624E-03  1.41756954E-03
         7   13           137.744659  3.37002512E-03  1.41749772E-03
         7   15           137.473506  2.86331872E-01  1.20574239E-01
         7   17           137.473504  2.86332044E-01  1.20574312E-01
         8   10            15.808853  1.96634597E-01  2.33557333E-01
         8   12           137.744685  3.37019624E-03  1.41756954E-03
         8   14           137.744659  3.37002512E-03  1.41749772E-03
         8   16           137.473506  2.86331872E-01  1.20574239E-01
         8   18           137.473504  2.86332044E-01  1.20574312E-01
         9   15            82.204274  1.81731747E-04  1.02121007E-03
         9   17            82.204233  1.81731939E-04  1.02120883E-03
        10   16            82.204274  1.81731747E-04  1.02121007E-03
        10   18            82.204233  1.81731939E-04  1.02120883E-03
        11   15      --------------- below threshold  4.92326769E-02
        11   17      --------------- below threshold  4.79309277E-02
        12   16      --------------- below threshold  4.92326769E-02
        12   18      --------------- below threshold  4.79309277E-02
        13   15      --------------- below threshold  4.79313612E-02
        13   17      --------------- below threshold  4.92323039E-02
        14   16      --------------- below threshold  4.79313612E-02
        14   18      --------------- below threshold  4.92323039E-02
     ---------------------------------------------------------------

 Number of problematic transitions =                    54

--

 Electric-dipole - electric-octupole not included
++ I/O STATISTICS
 
  I. General I/O information
  - - - - - - - - - - - - - - - - - - - - - - - - - - - - - - - - - - - - - - - - - - -
  Unit  Name          Flsize      Write/Read            MBytes           Write/Read
                      (MBytes)       Calls              In/Out           Time, sec.
  - - - - - - - - - - - - - - - - - - - - - - - - - - - - - - - - - - - - - - - - - - -
   1  SCRATCH           0.00 .       9/      45 .      0.0/      0.0 .       0/       0
   2  ANNI              0.00 .       0/       0 .      0.0/      0.0 .       0/       0
   3  RUNFILE          14.79 .     322/   10031 .      2.3/     72.7 .       0/       0
   4  ONEINT            5.45 .       0/   23543 .      0.0/   3734.6 .       0/       0
   5  JOBIPH            6.30 .       0/      92 .      0.0/      0.8 .       0/       0
   6  ORDINT          473.53 .       1/    3789 .      0.0/    947.0 .       0/       0
  - - - - - - - - - - - - - - - - - - - - - - - - - - - - - - - - - - - - - - - - - - -
   *  TOTAL           500.08 .     332/   37500 .      2.3/   4755.1 .       0/       0
  - - - - - - - - - - - - - - - - - - - - - - - - - - - - - - - - - - - - - - - - - - -
 
  II. I/O Access Patterns
  - - - - - - - - - - - - - - - - - - - -
  Unit  Name               % of random
                         Write/Read calls
  - - - - - - - - - - - - - - - - - - - -
   1  SCRATCH             88.9/ 100.0
   2  ANNI                 0.0/   0.0
   3  RUNFILE             28.6/  10.8
   4  ONEINT               0.0/  16.4
   5  JOBIPH               0.0/  76.1
   6  ORDINT             100.0/   0.1
  - - - - - - - - - - - - - - - - - - - -
--
--- Stop Module: rassi at Thu Jan  9 21:06:30 2025 /rc=_RC_ALL_IS_WELL_ ---
*** files: xmldump
    saved to directory /home4/s4752295/Internship/Initial_simulations/Point_charge_model/1_electron/active_space_9_non_rel/V/varying_bond_length
--- Module rassi spent 3 seconds ---

.##################.
.# Happy landing! #.
.##################.

    Timing: Wall=50.21 User=38.72 System=8.39

###############################################################################
Hbrk Cluster
Job 14549897 for user s4752295
Finished at: Thu Jan  9 21:06:30 CET 2025

Job details:
============

Job ID                         : 14549897
Name                           : V_no_c_light
User                           : s4752295
Partition                      : regularmedium
Nodes                          : node82
Number of Nodes                : 1
Cores                          : 1
Number of Tasks                : 1
State                          : RUNNING  
Submit                         : 2025-01-09T21:05:33
Start                          : 2025-01-09T21:05:34
End                            : --
Reserved walltime              : 15:00:00
Used walltime                  : 00:00:56
Used CPU time                  : -- 
% User (Computation)           : --
% System (I/O)                 : --
Total memory reserved          : 25000M
Maximum memory used            : --

Acknowledgements:
=================

Please see this page for information about acknowledging Hbrk in your publications:

https://wiki.hpc.rug.nl/habrok/introduction/scientific_output

################################################################################
